ITEM: TIMESTEP
26000
ITEM: NUMBER OF ATOMS
500
ITEM: BOX BOUNDS pp pp pp
0 8.07388
0 8.07388
0 8.07388
ITEM: ATOMS id type mass x y z 
8 1 1 1.65982 0.741263 0.709717 
4 1 1 0.0329148 0.746428 1.01507 
2 1 1 0.819437 0.614154 0.0796114 
3 1 1 0.748847 8.04515 0.932247 
7 1 1 2.45853 7.97901 0.866106 
12 1 1 3.11039 0.664339 0.706872 
27 1 1 2.29461 1.58543 0.796148 
105 1 1 1.70992 7.93076 1.57287 
5 1 1 1.61659 7.94388 0.0478066 
11 1 1 3.94586 8.08114 0.880619 
110 1 1 4.01904 0.789436 1.6329 
16 1 1 4.91241 0.911189 0.830711 
15 1 1 5.7262 0.0613901 0.854596 
20 1 1 6.54689 0.725092 0.880571 
113 1 1 4.92291 8.0545 1.54858 
114 1 1 5.57679 0.758288 1.68495 
133 1 1 4.77055 1.6076 1.58831 
13 1 1 4.63827 0.0329008 8.03207 
118 1 1 7.32947 0.705983 1.65411 
18 1 1 7.33488 0.583171 0.0538407 
23 1 1 0.645414 1.50073 0.756989 
21 1 1 7.87718 1.51323 0.0808433 
22 1 1 0.834167 2.46226 0.123956 
28 1 1 1.49925 2.42474 0.903693 
43 1 1 0.675467 3.2418 0.893377 
47 1 1 2.23867 3.25941 0.853031 
45 1 1 1.51394 3.29448 8.08938 
49 1 1 3.03656 3.14816 0.143985 
29 1 1 3.22461 1.64 8.05456 
31 1 1 3.85128 1.57619 0.894878 
32 1 1 3.12366 2.29482 0.805893 
30 1 1 4.03295 2.22811 0.162375 
36 1 1 4.95057 2.33811 0.77808 
35 1 1 5.71601 1.5898 0.682407 
40 1 1 6.55287 2.3837 0.776372 
24 1 1 7.92414 2.32427 0.736678 
39 1 1 7.32121 1.42903 0.956342 
38 1 1 7.33508 2.51257 8.01824 
59 1 1 7.38798 3.17363 0.700387 
121 1 1 0.103624 1.71499 1.61563 
41 1 1 0.0640519 3.12997 7.93585 
142 1 1 0.877568 4.11567 1.59665 
42 1 1 0.827465 4.15733 0.138245 
48 1 1 1.63356 4.15686 0.892563 
67 1 1 2.38379 4.90186 0.674377 
146 1 1 2.41773 3.99567 1.71459 
46 1 1 2.30934 4.03347 0.0270391 
65 1 1 1.57142 4.78934 0.0278448 
51 1 1 4.09957 3.03174 0.762234 
52 1 1 2.99631 4.06872 0.778278 
56 1 1 4.92033 3.92335 0.876637 
50 1 1 3.91312 3.86102 0.10585 
57 1 1 6.54702 3.33751 8.01726 
55 1 1 5.79188 3.1495 0.850017 
154 1 1 5.70793 3.785 1.66305 
60 1 1 6.5218 4.02606 0.725173 
54 1 1 5.67585 3.88132 8.0126 
44 1 1 8.03906 4.10546 0.936488 
58 1 1 7.327 4.14149 7.85219 
161 1 1 7.23328 4.94204 0.911092 
158 1 1 7.26152 4.03067 1.78146 
63 1 1 0.709843 4.87734 0.877943 
68 1 1 1.44196 5.65419 0.929548 
83 1 1 0.72113 6.4915 0.793177 
162 1 1 0.67004 5.71601 1.54896 
165 1 1 1.6636 4.77473 1.6386 
166 1 1 2.3475 5.59372 1.7765 
66 1 1 2.41421 5.84049 8.0381 
169 1 1 3.24175 4.7543 1.76626 
73 1 1 4.81478 5.05395 0.169876 
71 1 1 4.08931 4.56967 0.77536 
72 1 1 3.18302 5.53035 0.984161 
170 1 1 3.95159 5.62898 1.74783 
69 1 1 3.18517 4.87986 0.0317443 
75 1 1 5.67424 4.80757 0.843688 
76 1 1 4.75433 5.84922 0.983789 
193 1 1 4.9722 6.59449 1.62736 
80 1 1 6.36962 5.72477 0.812041 
97 1 1 6.51939 6.59293 7.9805 
64 1 1 8.0727 5.67388 0.801067 
81 1 1 8.07551 6.43253 7.99205 
1 1 1 0.148695 7.92411 7.93006 
185 1 1 1.64075 6.38953 1.64063 
88 1 1 1.61682 7.21962 0.804606 
82 1 1 0.871761 7.23234 7.99098 
87 1 1 2.46977 6.3265 0.903967 
92 1 1 3.31485 7.28056 0.900777 
9 1 1 3.14143 7.86364 -0.00161723 
189 1 1 3.14115 6.48452 1.62269 
91 1 1 3.89375 6.34814 0.877589 
190 1 1 4.05691 7.23163 1.55768 
109 1 1 3.0904 0.118887 1.79376 
95 1 1 5.74093 6.63246 0.864327 
96 1 1 4.92913 7.31608 0.762434 
93 1 1 4.89306 6.46529 0.194056 
94 1 1 5.64744 7.32613 0.0598492 
99 1 1 7.44709 6.50832 0.855621 
100 1 1 6.58087 7.27737 0.868735 
181 1 1 0.0221298 6.46261 1.69873 
19 1 1 7.28501 8.01102 0.939655 
84 1 1 0.0118526 7.29838 0.886985 
102 1 1 0.821169 0.741162 1.70617 
103 1 1 1.01324 -0.00844966 2.39169 
123 1 1 0.682979 1.57616 2.47297 
225 1 1 1.71022 1.64118 3.30361 
106 1 1 2.40039 0.809 1.72386 
108 1 1 1.475 0.933676 2.5424 
112 1 1 3.0705 0.894086 2.57238 
206 1 1 2.27654 0.843237 3.28556 
107 1 1 2.28769 0.183826 2.45474 
210 1 1 3.9662 0.8789 3.30615 
116 1 1 4.77455 0.732717 2.42094 
111 1 1 4.00583 0.113527 2.51098 
117 1 1 6.4761 0.0675419 1.86235 
120 1 1 6.59371 0.829705 2.52401 
115 1 1 5.58718 -0.000430403 2.54655 
104 1 1 8.0591 0.868678 2.42074 
137 1 1 6.47613 1.33869 1.70369 
145 1 1 1.63923 3.20674 1.70128 
122 1 1 0.762227 2.41396 1.64523 
128 1 1 1.54045 2.37685 2.3858 
222 1 1 0.954248 2.48365 3.22596 
245 1 1 1.54552 3.26896 3.17661 
125 1 1 1.55673 1.56264 1.52633 
126 1 1 2.43853 2.53472 1.74608 
127 1 1 2.35386 1.75406 2.57092 
226 1 1 2.52318 2.49947 3.38303 
130 1 1 3.88293 2.33193 1.63399 
129 1 1 3.08178 1.68238 1.79101 
131 1 1 4.16029 1.72775 2.47123 
132 1 1 3.2373 2.33324 2.52134 
136 1 1 4.88683 2.32198 2.60563 
135 1 1 5.6615 1.48855 2.49836 
134 1 1 5.73799 2.23482 1.67094 
155 1 1 5.73223 3.17029 2.5464 
140 1 1 6.45209 2.29204 2.47249 
157 1 1 6.61415 3.18874 1.66534 
153 1 1 4.8926 3.10964 1.53538 
241 1 1 0.133802 3.16077 3.13377 
124 1 1 8.08899 2.32266 2.51256 
138 1 1 7.19141 2.3778 1.68083 
139 1 1 7.34732 1.55439 2.32512 
159 1 1 7.33111 3.29324 2.49971 
237 1 1 6.51429 1.58087 3.40291 
143 1 1 0.790339 3.27237 2.36221 
144 1 1 0.0208249 4.16124 2.44633 
147 1 1 2.37837 3.14756 2.53581 
148 1 1 1.57544 4.06925 2.49634 
152 1 1 3.17552 3.98049 2.46624 
265 1 1 1.73668 4.77163 3.18501 
150 1 1 4.08791 3.89382 1.51558 
149 1 1 3.24813 3.21355 1.34553 
151 1 1 4.06156 3.0942 2.37642 
269 1 1 3.51275 4.8414 3.09994 
156 1 1 5.00718 4.01238 2.39806 
171 1 1 4.13633 4.75531 2.37665 
273 1 1 4.85796 4.86825 3.10802 
177 1 1 6.43119 4.84855 1.57872 
141 1 1 7.92425 3.14498 1.64035 
160 1 1 6.42905 3.97753 2.4458 
258 1 1 7.36321 4.02706 3.219 
163 1 1 7.98559 4.89987 1.67008 
242 1 1 0.883629 4.91963 2.41799 
261 1 1 7.99333 4.83965 3.15574 
262 1 1 0.916894 5.67968 3.17438 
167 1 1 2.58185 4.83994 2.51253 
168 1 1 1.78764 5.77592 2.65077 
266 1 1 2.49616 5.73592 3.33007 
172 1 1 3.24517 5.71604 2.53147 
270 1 1 4.08912 5.70268 3.28438 
176 1 1 5.02878 5.68848 2.32573 
191 1 1 3.93118 6.53064 2.39394 
173 1 1 4.92108 4.79486 1.59117 
174 1 1 5.68564 5.76188 1.50352 
175 1 1 5.6921 4.88891 2.36603 
180 1 1 6.2837 5.71796 2.44723 
274 1 1 5.64332 5.67563 3.17238 
178 1 1 7.23455 5.82912 1.52545 
164 1 1 0.0717658 5.73533 2.50042 
179 1 1 7.20219 4.97498 2.32922 
199 1 1 7.31545 6.50639 2.472 
281 1 1 0.0971071 6.43927 3.19542 
182 1 1 0.775323 7.14471 1.74303 
183 1 1 0.98053 6.38837 2.40474 
205 1 1 1.66425 0.0715163 3.32522 
186 1 1 2.44658 7.21528 1.52555 
187 1 1 2.46942 6.45385 2.45374 
188 1 1 1.758 7.29928 2.41724 
285 1 1 1.68104 6.50778 3.27609 
192 1 1 3.23718 7.3211 2.45776 
290 1 1 4.16096 7.23154 3.1656 
197 1 1 6.43933 6.53386 1.72129 
194 1 1 5.81205 7.40493 1.66105 
195 1 1 5.7232 6.61736 2.41152 
196 1 1 4.79813 7.20381 2.38586 
200 1 1 6.38109 7.39846 2.64631 
101 1 1 0.0423344 7.93295 1.83692 
198 1 1 7.25397 7.2105 1.64593 
184 1 1 8.07264 7.21339 2.45197 
119 1 1 7.26416 0.0626206 2.54694 
202 1 1 0.776234 0.91867 3.33695 
302 1 1 0.784281 0.989509 4.93044 
229 1 1 3.25208 1.5926 3.26452 
208 1 1 1.60582 0.826419 4.09326 
207 1 1 2.44853 -0.0114221 4.07832 
212 1 1 3.05927 0.865394 4.09353 
209 1 1 3.21175 0.150186 3.21145 
211 1 1 4.01645 0.0710684 3.97684 
216 1 1 4.7311 0.816865 4.06718 
231 1 1 4.05462 1.70988 4.10796 
233 1 1 4.7655 1.6399 3.3204 
217 1 1 6.43094 0.156182 3.26203 
214 1 1 5.67251 0.892814 3.37329 
235 1 1 5.50562 1.72903 4.10878 
215 1 1 5.84561 8.0168 4.13303 
218 1 1 7.25579 0.814567 3.38468 
220 1 1 6.55107 0.845322 4.12027 
204 1 1 8.1026 0.907021 4.14729 
239 1 1 7.25461 1.6385 4.06525 
223 1 1 0.991718 1.59877 4.10196 
243 1 1 0.805127 3.2477 4.10339 
321 1 1 0.0528164 1.73657 4.86536 
224 1 1 0.123258 2.34741 4.00095 
322 1 1 0.870943 2.40319 4.76495 
325 1 1 1.51931 1.58757 4.97735 
227 1 1 2.28558 1.49713 4.06582 
228 1 1 1.63894 2.45384 3.95144 
247 1 1 2.30224 3.22424 4.18012 
326 1 1 2.36529 2.34644 4.87185 
249 1 1 3.29175 3.28161 3.17207 
253 1 1 4.80277 3.28408 3.27352 
232 1 1 3.12735 2.47818 4.16046 
230 1 1 3.98421 2.52609 3.37237 
251 1 1 4.04441 3.27604 4.11209 
236 1 1 4.75763 2.55062 4.12251 
234 1 1 5.73826 2.24702 3.1773 
240 1 1 6.52748 2.44551 3.98683 
255 1 1 5.67106 3.12085 4.0044 
257 1 1 6.55413 3.26185 3.26357 
334 1 1 5.45926 2.33381 4.90477 
221 1 1 0.00124144 1.53772 3.35275 
238 1 1 7.19752 2.55637 3.15776 
357 1 1 6.40374 3.07214 4.76222 
259 1 1 7.29836 3.1771 3.9928 
244 1 1 0.847999 4.06929 3.2138 
248 1 1 1.59816 3.9596 4.02634 
263 1 1 0.727428 4.88417 3.94914 
342 1 1 0.803869 4.13439 4.79214 
361 1 1 8.07668 4.848 4.98282 
246 1 1 2.48997 3.93637 3.37384 
267 1 1 2.48747 4.9261 3.92402 
252 1 1 3.25091 3.97411 3.98391 
250 1 1 4.10719 4.03279 3.21864 
256 1 1 4.72398 4.08284 3.98608 
350 1 1 3.871 4.09192 4.84549 
271 1 1 4.06585 5.02047 4.10642 
277 1 1 6.5349 4.85658 3.17804 
254 1 1 5.66841 3.95896 3.3 
260 1 1 6.44062 4.10232 3.94102 
354 1 1 5.61179 4.05144 4.7519 
275 1 1 5.5803 4.92873 3.97518 
358 1 1 7.99903 4.03679 4.15386 
379 1 1 7.21388 3.90705 4.86199 
268 1 1 1.69892 5.57729 4.02585 
283 1 1 0.792304 6.62825 4.02185 
264 1 1 0.118941 5.62862 3.98314 
366 1 1 2.33795 5.69313 4.74923 
287 1 1 2.4854 6.48762 4.0378 
289 1 1 3.19842 6.5111 3.21682 
293 1 1 4.98138 6.48686 3.1908 
272 1 1 3.13327 5.73184 4.08444 
370 1 1 4.03499 5.69961 4.84259 
276 1 1 4.83308 5.67743 4.10973 
373 1 1 4.93814 4.85455 4.87156 
291 1 1 3.91525 6.42342 4.03977 
280 1 1 6.51832 5.60658 4.09094 
295 1 1 5.70591 6.40368 4.163 
377 1 1 6.41336 4.8248 4.82134 
374 1 1 5.71303 5.58658 4.92889 
279 1 1 7.32679 4.78166 3.89355 
278 1 1 7.23429 5.59719 3.19717 
299 1 1 7.46811 6.40893 3.93801 
378 1 1 7.39222 5.6136 4.66367 
203 1 1 0.791242 0.0608431 4.00683 
282 1 1 0.956621 7.39106 3.07479 
201 1 1 0.142976 8.10475 3.20015 
286 1 1 2.42347 7.25516 3.1794 
288 1 1 1.73787 7.34794 4.10319 
386 1 1 2.51765 7.28233 4.84556 
213 1 1 4.82307 0.0846937 3.32083 
292 1 1 3.32395 7.35863 3.79334 
296 1 1 4.89272 7.19958 4.1431 
294 1 1 5.64216 7.29217 3.44358 
300 1 1 6.48881 7.23136 4.15231 
297 1 1 6.4969 6.30165 3.23264 
284 1 1 0.0899835 7.27391 3.97994 
219 1 1 7.253 0.07296 4.10189 
298 1 1 7.40268 7.29744 3.22742 
301 1 1 0.0367413 0.0653442 4.68157 
308 1 1 1.69193 0.828374 5.76378 
402 1 1 0.891938 0.540206 6.5323 
401 1 1 0.0990233 8.00643 6.39474 
306 1 1 2.42427 0.976238 4.97288 
312 1 1 3.14089 0.774732 5.79613 
309 1 1 3.16468 0.0777753 4.75516 
406 1 1 2.39435 0.787467 6.66427 
310 1 1 3.86486 0.850172 4.88386 
313 1 1 4.87556 0.120483 4.78334 
311 1 1 3.72595 8.02728 5.64263 
316 1 1 4.9082 0.724765 5.67981 
413 1 1 4.88586 8.02896 6.40487 
314 1 1 5.62959 0.887488 4.65783 
337 1 1 6.39301 1.67572 4.6773 
320 1 1 6.47963 0.861156 5.3787 
335 1 1 5.71825 1.59854 5.63691 
317 1 1 6.53109 0.0473611 4.82753 
318 1 1 7.35923 0.867194 4.80307 
304 1 1 0.0680796 0.880986 5.61613 
319 1 1 7.29002 0.00129365 5.59847 
417 1 1 6.51011 7.97665 6.42171 
418 1 1 7.22867 0.730823 6.29314 
341 1 1 0.0602717 3.19553 4.90815 
323 1 1 0.792438 1.62701 5.69591 
328 1 1 1.45086 2.41576 5.65238 
324 1 1 8.05864 2.44248 5.58199 
329 1 1 3.23017 1.70741 4.75825 
429 1 1 3.30273 1.42921 6.64122 
327 1 1 2.50182 1.55231 5.90762 
347 1 1 2.35447 3.33891 5.48461 
353 1 1 4.75132 3.3749 4.89361 
331 1 1 4.08534 1.56582 5.89211 
332 1 1 3.34571 2.39492 5.74256 
330 1 1 4.14275 2.50166 4.98914 
430 1 1 4.13943 2.42015 6.48712 
333 1 1 4.82974 1.48996 4.90412 
336 1 1 4.8102 2.27612 5.76261 
434 1 1 5.71664 2.59195 6.4307 
338 1 1 7.2461 2.42392 4.78754 
340 1 1 6.50131 2.49267 5.66781 
339 1 1 7.24851 1.62326 5.64855 
438 1 1 7.28531 2.38859 6.40877 
343 1 1 0.717874 3.22744 5.66959 
363 1 1 0.844051 4.75324 5.72862 
365 1 1 1.59996 4.91263 4.83367 
344 1 1 7.95404 4.17707 5.72811 
345 1 1 1.44642 3.22765 4.93806 
346 1 1 2.36356 4.13223 4.66699 
348 1 1 1.6061 4.03217 5.57951 
352 1 1 3.29137 3.9424 5.74003 
367 1 1 2.52615 4.60255 5.61 
349 1 1 3.173 3.33576 4.78356 
351 1 1 4.02814 3.25476 5.68531 
371 1 1 4.03569 4.88594 5.58556 
356 1 1 4.83724 4.11145 5.82115 
473 1 1 4.81175 4.91874 6.50742 
457 1 1 6.67197 3.277 6.33082 
355 1 1 5.56861 3.31244 5.49635 
375 1 1 5.58874 4.88595 5.65562 
454 1 1 5.65695 4.02077 6.44756 
477 1 1 6.18428 4.97596 6.47271 
359 1 1 7.32432 3.1144 5.62836 
360 1 1 6.28193 4.04688 5.5339 
478 1 1 7.10571 4.69695 5.58405 
458 1 1 7.16775 4.2107 6.52051 
362 1 1 0.826539 5.63329 4.75737 
381 1 1 0.0290455 6.44178 4.79582 
383 1 1 0.72745 6.39932 5.62613 
368 1 1 1.7867 5.66961 5.67788 
387 1 1 2.31936 6.48977 5.67923 
385 1 1 1.59015 6.45329 4.82862 
389 1 1 3.16741 6.48879 4.94825 
369 1 1 3.13479 4.84464 4.82332 
372 1 1 3.13314 5.6723 5.63204 
391 1 1 3.93894 6.46576 5.81838 
376 1 1 4.92833 5.65051 5.57756 
393 1 1 4.8097 6.59497 4.87347 
474 1 1 5.50331 5.85795 6.44473 
497 1 1 6.44985 6.44548 6.53867 
493 1 1 4.6492 6.40374 6.64581 
364 1 1 8.02674 5.59629 5.60098 
380 1 1 6.40728 5.71165 5.75025 
399 1 1 7.27002 6.26739 5.51606 
461 1 1 0.0437871 4.92611 6.44323 
499 1 1 7.14947 5.79558 6.46795 
303 1 1 0.68624 8.02715 5.56086 
382 1 1 0.809869 7.37484 4.71205 
384 1 1 0.0646536 7.28254 5.47765 
482 1 1 0.876068 7.26028 6.49151 
305 1 1 1.4793 0.0987326 4.94246 
307 1 1 2.36748 0.0436071 5.57313 
388 1 1 1.51131 7.26713 5.53291 
392 1 1 3.19807 7.21483 5.69989 
390 1 1 3.98056 7.40567 4.83373 
490 1 1 3.94709 7.42467 6.48749 
396 1 1 4.64169 7.36835 5.65517 
315 1 1 5.7611 0.0152061 5.63303 
395 1 1 5.60445 6.53496 5.57319 
394 1 1 5.73204 7.23198 4.87359 
494 1 1 5.40282 7.17098 6.44904 
400 1 1 6.6029 7.34938 5.53297 
397 1 1 6.43827 6.45661 4.92079 
398 1 1 7.37976 7.1176 4.70931 
408 1 1 1.53087 0.856301 7.31456 
404 1 1 0.260862 0.944151 7.29091 
6 1 1 2.40085 0.819209 8.0046 
409 1 1 3.14465 0.104348 6.64597 
427 1 1 2.34504 1.70854 7.27306 
407 1 1 2.38538 7.97723 7.42718 
412 1 1 3.25658 0.738973 7.49745 
410 1 1 4.01561 0.543096 6.5699 
10 1 1 4.09953 0.887809 8.04622 
416 1 1 4.93492 0.543703 7.21254 
14 1 1 5.78941 0.712735 0.0173839 
414 1 1 5.64007 0.831997 6.48514 
415 1 1 5.69567 7.93954 7.33437 
17 1 1 6.56741 0.0347325 7.82714 
420 1 1 6.44234 0.849274 7.24053 
419 1 1 7.43384 0.042933 7.19028 
37 1 1 6.65912 1.46969 0.0632209 
425 1 1 1.51962 1.57616 6.50243 
423 1 1 0.797871 1.85136 7.21633 
422 1 1 0.806285 2.68141 6.52625 
424 1 1 8.02441 2.4153 7.13304 
421 1 1 8.06009 1.63446 6.45899 
25 1 1 1.50827 1.62421 0.0675642 
26 1 1 2.20904 2.44247 0.258529 
445 1 1 1.6273 3.37281 6.34388 
426 1 1 2.32951 2.5169 6.3854 
428 1 1 1.54969 2.57554 7.25067 
447 1 1 2.52964 3.08492 7.38393 
33 1 1 4.99715 1.46372 7.97839 
449 1 1 3.20386 3.15591 6.41725 
433 1 1 4.91828 1.47959 6.47523 
431 1 1 4.09056 1.60705 7.30084 
432 1 1 3.28539 2.36595 7.09749 
451 1 1 3.99178 3.27644 7.22284 
34 1 1 5.69525 2.36688 0.0651755 
436 1 1 4.84437 2.31935 7.22602 
435 1 1 5.83095 1.68371 7.19501 
440 1 1 6.52609 2.38381 7.16557 
53 1 1 4.88709 3.18744 7.85647 
455 1 1 5.73215 2.97731 7.32149 
437 1 1 6.44818 1.57558 6.35826 
439 1 1 7.26847 1.51957 7.14609 
459 1 1 7.27441 3.30826 7.1377 
443 1 1 0.859636 3.29953 7.2997 
442 1 1 0.7475 3.94851 6.38443 
463 1 1 0.752176 4.90863 7.22425 
446 1 1 2.46925 3.92512 6.44848 
448 1 1 1.64128 4.02782 7.22656 
467 1 1 2.34762 4.95616 7.46576 
452 1 1 3.23962 3.98299 7.46114 
469 1 1 3.13829 4.71916 6.44513 
465 1 1 1.65945 4.71619 6.35709 
450 1 1 4.00097 4.19863 6.51936 
453 1 1 4.85995 3.27948 6.57084 
471 1 1 4.17051 4.92634 7.43777 
456 1 1 4.84847 4.10185 7.40801 
77 1 1 6.51217 4.79115 7.93199 
475 1 1 5.65416 4.73383 7.33218 
460 1 1 6.44212 3.98309 7.12574 
441 1 1 7.99708 3.23808 6.44093 
444 1 1 8.0588 4.15014 7.12971 
479 1 1 7.29196 5.04756 7.11903 
62 1 1 0.849501 5.5664 0.124258 
85 1 1 1.57036 6.49951 -0.0200875 
462 1 1 0.83899 5.65185 6.32077 
468 1 1 1.56632 5.5945 7.32775 
485 1 1 1.43904 6.42294 6.38158 
466 1 1 2.33686 5.55681 6.58796 
472 1 1 3.15326 5.68616 7.40288 
487 1 1 2.25027 6.39142 7.12771 
470 1 1 3.90148 5.53533 6.61991 
70 1 1 3.8872 5.64293 0.136734 
489 1 1 3.13283 6.3028 6.51992 
491 1 1 4.07273 6.36666 7.48102 
476 1 1 5.05179 5.63318 7.30809 
74 1 1 5.64137 5.76051 0.0456758 
480 1 1 6.35566 5.66881 7.31112 
61 1 1 0.0335279 4.76675 -0.0262069 
79 1 1 7.17163 5.5887 0.0710066 
464 1 1 0.0286343 5.75131 7.24339 
403 1 1 1.01843 8.00606 7.35493 
405 1 1 1.71841 7.96049 6.54335 
483 1 1 0.821561 6.40293 7.27481 
488 1 1 1.59735 7.14798 7.23864 
86 1 1 2.40945 7.09915 8.0082 
486 1 1 2.42511 7.20788 6.53714 
89 1 1 3.19034 6.58815 0.0895902 
492 1 1 3.12419 7.27353 7.23148 
90 1 1 4.12047 7.24982 0.219244 
411 1 1 3.89243 8.00763 7.40542 
495 1 1 5.49758 6.62166 7.39327 
496 1 1 4.71473 7.32521 7.22611 
500 1 1 6.75008 7.29311 7.19141 
78 1 1 7.32233 6.47885 7.32753 
481 1 1 7.94126 6.50937 6.2617 
98 1 1 7.40524 7.31202 0.115146 
498 1 1 7.31764 7.37478 6.30165 
484 1 1 8.06257 7.18988 7.21044 
