ITEM: TIMESTEP
21000
ITEM: NUMBER OF ATOMS
500
ITEM: BOX BOUNDS pp pp pp
0 8.07388
0 8.07388
0 8.07388
ITEM: ATOMS id type mass x y z 
4 1 1 0.00847069 0.872516 0.571869 
3 1 1 0.679789 0.0325188 0.688316 
1 1 1 7.97556 7.95952 0.00451611 
2 1 1 0.761142 0.91704 8.05804 
21 1 1 7.98957 1.70698 7.93935 
8 1 1 1.76152 0.80111 0.858043 
9 1 1 3.20476 0.142674 8.04234 
7 1 1 2.37284 -0.00469209 0.865563 
6 1 1 2.21653 0.835641 7.96231 
5 1 1 1.57332 7.97115 0.126106 
12 1 1 3.29294 0.982318 0.739583 
33 1 1 4.84705 1.54666 7.98022 
11 1 1 3.97985 8.03239 0.725687 
16 1 1 4.7678 0.762286 0.738614 
15 1 1 5.70383 0.073212 0.952159 
35 1 1 5.47487 1.7772 0.85504 
14 1 1 5.61402 0.790258 0.0477359 
20 1 1 6.29968 0.906121 0.793999 
39 1 1 7.14158 1.73353 0.79117 
19 1 1 7.39226 0.123794 0.780423 
23 1 1 0.92935 1.63859 0.886805 
122 1 1 0.77278 2.4868 1.6187 
22 1 1 0.821104 2.30828 8.04955 
43 1 1 0.785952 3.07561 0.777741 
27 1 1 2.42646 1.62454 0.703454 
28 1 1 1.7683 2.27006 1.0914 
47 1 1 2.71032 3.22971 0.757939 
25 1 1 1.65374 1.73228 7.98348 
31 1 1 4.14179 1.67937 0.737087 
32 1 1 3.29257 2.40654 0.822842 
30 1 1 4.09927 2.57391 0.03567 
53 1 1 4.8646 3.3157 0.0215274 
129 1 1 3.25971 1.6821 1.57852 
36 1 1 4.80544 2.57768 0.90816 
34 1 1 5.64804 2.55121 8.0626 
134 1 1 5.46218 2.46152 1.62514 
55 1 1 5.66457 3.24836 0.812794 
24 1 1 0.0586785 2.36894 0.793391 
40 1 1 6.43871 2.4137 0.844887 
138 1 1 7.19513 2.47609 1.5896 
137 1 1 6.40541 1.6675 1.59839 
59 1 1 7.21536 3.2052 0.930159 
44 1 1 7.99551 3.80751 0.904803 
63 1 1 0.993099 4.78449 0.86422 
48 1 1 1.66542 3.98542 0.848939 
145 1 1 1.56297 3.21793 1.60848 
169 1 1 3.17362 4.9166 1.65746 
146 1 1 2.38363 4.03469 1.584 
46 1 1 2.51219 4.03087 0.222946 
67 1 1 2.31341 4.89573 0.960938 
149 1 1 3.3697 3.22484 1.66413 
51 1 1 3.9134 3.2535 0.751493 
69 1 1 3.34818 4.97428 0.201411 
52 1 1 3.36454 4.14534 0.932489 
150 1 1 4.03742 4.01333 1.70084 
56 1 1 4.66264 3.9157 0.911852 
71 1 1 3.99676 4.98761 1.08216 
153 1 1 4.75945 3.19941 1.6361 
54 1 1 5.5501 4.0074 0.0465857 
157 1 1 6.40851 3.21676 1.55021 
75 1 1 5.74674 4.70633 0.792307 
154 1 1 5.68398 3.97726 1.50602 
141 1 1 8.04771 3.04103 1.65803 
60 1 1 6.53069 3.92002 0.735973 
158 1 1 7.35487 3.9712 1.68972 
58 1 1 7.28002 3.99424 8.06206 
62 1 1 0.825925 5.68307 0.056198 
81 1 1 0.0292384 6.60076 8.00424 
68 1 1 1.5871 5.72997 0.824946 
66 1 1 2.51665 5.72037 0.156355 
166 1 1 2.46635 5.63771 1.69912 
87 1 1 2.40264 6.46666 0.956708 
65 1 1 1.84591 4.88298 7.99379 
72 1 1 3.27469 5.75734 0.986328 
70 1 1 4.09761 5.65173 0.0664831 
76 1 1 5.07362 5.64026 0.983004 
74 1 1 5.64416 5.58533 0.112667 
95 1 1 5.67401 6.52351 0.637457 
177 1 1 6.65763 4.79829 1.6075 
173 1 1 4.92124 4.75219 1.5081 
174 1 1 5.77082 5.53186 1.8282 
163 1 1 7.90233 4.91998 1.62579 
161 1 1 7.25631 4.73645 0.759184 
80 1 1 6.40496 5.56041 0.825024 
64 1 1 0.0640523 5.54227 0.828331 
99 1 1 7.18748 6.39039 0.892249 
83 1 1 0.738603 6.44636 0.811417 
84 1 1 0.107347 7.18519 0.786292 
85 1 1 1.65665 6.43142 0.00585202 
82 1 1 0.909122 7.15694 0.0140365 
88 1 1 1.59491 7.13336 0.776345 
92 1 1 3.03519 7.28214 0.786394 
86 1 1 2.42087 7.31534 8.00474 
89 1 1 3.36504 6.33443 0.0814627 
91 1 1 4.15938 6.29909 0.949136 
93 1 1 4.85111 6.39626 0.0549494 
190 1 1 4.09861 7.23967 1.34741 
90 1 1 3.9982 7.22772 0.00641656 
197 1 1 6.33128 6.44267 1.48248 
96 1 1 4.90663 7.31127 0.633968 
194 1 1 5.5436 7.25244 1.51749 
113 1 1 4.76631 0.161894 1.49567 
13 1 1 4.80276 8.04455 7.92553 
94 1 1 5.73444 7.42505 0.0642828 
100 1 1 6.51123 7.32541 0.902938 
98 1 1 7.28034 7.17701 0.0949599 
181 1 1 0.0416469 6.28374 1.6388 
102 1 1 0.69346 0.763271 1.43563 
121 1 1 0.0751511 1.72758 1.70249 
104 1 1 -0.0148938 0.831062 2.5402 
108 1 1 1.60488 0.906193 2.69317 
106 1 1 2.55569 0.855787 1.53102 
105 1 1 1.61754 8.00777 1.60191 
107 1 1 2.46994 0.153832 2.38109 
205 1 1 1.54706 0.0857493 3.29954 
110 1 1 3.94903 0.766594 1.53803 
112 1 1 3.19396 0.96649 2.40139 
109 1 1 3.32076 7.88307 1.56817 
111 1 1 4.21155 7.87443 2.33936 
210 1 1 4.08549 0.697417 3.21883 
114 1 1 5.67503 0.969283 1.59261 
116 1 1 4.77321 0.732221 2.41379 
120 1 1 6.40984 0.996201 2.40455 
118 1 1 7.48492 0.908574 1.50454 
119 1 1 7.30961 7.95505 2.40039 
139 1 1 7.23709 1.73984 2.28933 
125 1 1 1.50505 1.35216 1.68831 
123 1 1 0.822014 1.63967 2.39217 
128 1 1 1.63575 2.47837 2.24463 
127 1 1 2.38558 1.76802 2.46077 
126 1 1 2.54731 2.62703 1.77912 
132 1 1 3.37099 2.49622 2.37894 
226 1 1 2.55517 2.45458 3.28253 
131 1 1 4.13346 1.71431 2.43859 
133 1 1 4.68096 1.38584 1.61944 
130 1 1 4.1009 2.32648 1.53792 
229 1 1 3.33412 1.60532 3.28893 
135 1 1 5.42683 1.70757 2.45661 
136 1 1 4.82107 2.53 2.40773 
140 1 1 6.36186 2.37965 2.42082 
155 1 1 5.54213 3.24945 2.30503 
233 1 1 4.76393 1.49517 3.18458 
124 1 1 7.83758 2.48541 2.45003 
159 1 1 7.15204 3.21544 2.37134 
221 1 1 7.91032 1.55917 3.29395 
142 1 1 0.696987 3.89167 1.61687 
143 1 1 0.683233 2.98127 2.46072 
244 1 1 0.819146 4.13597 3.36381 
148 1 1 1.43142 4.10608 2.33855 
165 1 1 1.58186 4.87027 1.79521 
147 1 1 2.28673 3.35607 2.36926 
269 1 1 3.1146 4.97741 3.32703 
152 1 1 3.15336 4.12208 2.37462 
151 1 1 4.1034 3.20403 2.44768 
171 1 1 3.98128 4.76756 2.49447 
156 1 1 4.78695 4.04492 2.45075 
254 1 1 5.56705 3.92601 3.18331 
175 1 1 5.70425 4.68105 2.46815 
277 1 1 6.44531 4.67698 3.306 
144 1 1 0.0627191 3.90793 2.42686 
160 1 1 6.41774 3.97716 2.39525 
185 1 1 1.65058 6.51536 1.77152 
242 1 1 0.69395 4.87742 2.30639 
162 1 1 0.837594 5.6718 1.61067 
168 1 1 1.55947 5.62011 2.46338 
167 1 1 2.43786 4.97298 2.47398 
266 1 1 2.34126 5.77938 3.12513 
265 1 1 1.52332 4.80612 3.15267 
285 1 1 1.70238 6.64552 3.38625 
172 1 1 3.23715 5.64434 2.52556 
189 1 1 3.35553 6.55228 1.58087 
170 1 1 3.94886 5.715 1.79891 
191 1 1 4.11543 6.48642 2.41522 
289 1 1 3.26449 6.51675 3.1702 
176 1 1 4.87565 5.39779 2.4395 
180 1 1 6.49754 5.47124 2.50736 
195 1 1 5.77841 6.49088 2.42135 
297 1 1 6.45103 6.38646 3.32548 
178 1 1 7.20655 5.68676 1.70073 
164 1 1 0.00862462 5.71803 2.51515 
261 1 1 8.01561 4.82657 3.20125 
179 1 1 7.26542 4.67776 2.48507 
281 1 1 -0.0029006 6.57929 3.25283 
182 1 1 0.875468 7.24697 1.54433 
103 1 1 0.859428 0.179634 2.51245 
183 1 1 0.809189 6.46643 2.34356 
184 1 1 0.0432458 7.19883 2.32816 
188 1 1 1.57267 7.40079 2.4355 
186 1 1 2.43302 7.30947 1.62949 
187 1 1 2.51312 6.54138 2.36454 
286 1 1 2.43955 7.32516 3.25063 
192 1 1 3.38992 7.23703 2.31193 
196 1 1 5.07115 7.18975 2.41931 
193 1 1 5.03512 6.33817 1.73014 
115 1 1 5.64992 0.00736414 2.26457 
294 1 1 5.62986 7.03861 3.36746 
101 1 1 7.96244 -0.00156818 1.61302 
117 1 1 6.60949 0.218479 1.55787 
198 1 1 7.45126 7.11043 1.59255 
199 1 1 7.06977 6.47405 2.54106 
200 1 1 6.34538 7.3073 2.10206 
298 1 1 7.15011 7.24353 3.19157 
202 1 1 0.760047 0.970094 3.24625 
208 1 1 1.51345 0.794949 4.11106 
204 1 1 7.85828 0.710061 4.06788 
302 1 1 0.828062 0.848743 4.83317 
206 1 1 2.46397 0.859342 3.1908 
306 1 1 2.50898 0.810435 4.80684 
212 1 1 3.31856 0.721116 3.91947 
207 1 1 2.50788 0.0830639 4.00126 
216 1 1 4.95743 0.726938 3.8287 
329 1 1 3.34125 1.56461 4.83087 
309 1 1 3.26546 7.97771 4.66676 
214 1 1 5.59149 0.821353 3.02293 
217 1 1 6.39246 7.99051 2.97033 
220 1 1 6.33052 0.763349 3.93279 
218 1 1 7.14258 0.85839 3.24107 
239 1 1 7.21653 1.49736 4.09901 
225 1 1 1.63023 1.89043 3.20742 
223 1 1 0.786992 1.64376 4.12128 
222 1 1 0.685112 2.32344 3.23884 
228 1 1 1.55971 2.43653 4.1075 
243 1 1 0.666517 3.35197 4.03153 
227 1 1 2.46942 1.49911 4.06968 
232 1 1 3.49307 2.26591 4.14787 
326 1 1 2.48916 2.39453 4.82068 
349 1 1 3.07753 3.24271 4.72761 
345 1 1 1.71165 3.14411 4.85557 
231 1 1 4.08372 1.32134 4.04539 
230 1 1 4.06321 2.36959 3.2465 
236 1 1 4.82503 2.28038 4.00779 
234 1 1 5.47937 2.45182 3.29174 
237 1 1 6.43952 1.56517 3.32072 
235 1 1 5.52151 1.51908 3.95507 
240 1 1 6.50331 2.33213 4.04121 
334 1 1 5.46565 2.39929 4.76752 
241 1 1 8.03719 3.15543 3.20296 
224 1 1 7.99822 2.39661 4.01018 
238 1 1 7.18344 2.37581 3.28531 
259 1 1 7.09737 3.09705 4.17486 
245 1 1 1.53924 3.30144 3.3592 
246 1 1 2.2894 4.13959 3.18752 
248 1 1 1.52758 4.04168 4.03967 
247 1 1 2.32241 3.21686 3.95715 
267 1 1 2.3508 4.92368 3.9216 
346 1 1 2.33986 4.00355 4.71755 
250 1 1 4.09432 4.03878 3.23341 
253 1 1 4.82949 3.27449 3.21606 
251 1 1 4.22988 3.26263 4.07033 
249 1 1 3.45305 3.2203 3.34542 
252 1 1 3.12017 3.95824 4.01613 
256 1 1 4.84697 4.12566 4.0256 
273 1 1 4.8013 4.87621 3.42852 
353 1 1 4.85931 3.4052 4.92203 
257 1 1 6.36065 3.10783 3.33335 
255 1 1 5.531 3.15359 4.11169 
275 1 1 5.71523 4.86053 4.19648 
260 1 1 6.2722 3.88096 4.02323 
258 1 1 7.19501 3.99764 3.3169 
358 1 1 7.88717 4.01813 4.03973 
279 1 1 7.17551 4.78065 4.04047 
262 1 1 0.842027 5.77568 3.32906 
263 1 1 0.586587 4.98532 4.0184 
362 1 1 1.03461 5.49904 4.98668 
365 1 1 1.77784 4.88242 5.05911 
385 1 1 1.70319 6.55042 4.91436 
268 1 1 1.62539 5.74803 4.05499 
272 1 1 3.14115 5.74564 4.11638 
287 1 1 2.53047 6.49097 4.18355 
366 1 1 2.37445 5.71448 4.76308 
270 1 1 3.97584 5.60505 3.34512 
271 1 1 3.8511 4.73786 3.98955 
291 1 1 4.26495 6.35225 4.11974 
293 1 1 4.94178 6.28354 3.09249 
274 1 1 5.75623 5.43277 3.36474 
276 1 1 5.05864 5.73365 4.02776 
280 1 1 6.52197 5.53451 4.15648 
295 1 1 5.77238 6.43375 4.26421 
278 1 1 7.20665 5.53812 3.16129 
264 1 1 7.9063 5.61989 3.94583 
283 1 1 0.940477 6.58204 4.06948 
203 1 1 0.771954 0.100837 4.02109 
282 1 1 0.850989 7.32908 3.19978 
288 1 1 1.80614 7.27801 4.19055 
301 1 1 8.03939 8.00165 4.75109 
209 1 1 3.38314 7.98988 3.06519 
292 1 1 3.40707 7.19445 4.00501 
386 1 1 2.60493 7.30252 4.87835 
389 1 1 3.27741 6.51889 4.92828 
290 1 1 4.21927 7.2138 3.26291 
211 1 1 4.10201 0.114563 4.06958 
390 1 1 4.13932 7.33397 4.94928 
296 1 1 4.90357 7.19867 4.15779 
213 1 1 5.01046 7.93182 3.22439 
215 1 1 5.71076 7.93604 4.08625 
393 1 1 5.01348 6.53129 4.8694 
317 1 1 6.50847 0.105055 4.81843 
201 1 1 -0.0238374 7.83625 3.24847 
219 1 1 7.21764 8.03 4.03224 
299 1 1 7.28243 6.50198 4.04787 
284 1 1 8.07468 7.11579 4.25301 
300 1 1 6.43751 7.2016 3.99155 
398 1 1 7.11843 7.34012 4.99994 
325 1 1 1.68676 1.5708 4.91432 
304 1 1 8.05012 0.874753 5.64999 
308 1 1 1.60826 0.732619 5.58591 
327 1 1 2.53689 1.68545 5.62316 
406 1 1 2.37274 0.908781 6.31876 
429 1 1 3.31333 1.66293 6.54227 
312 1 1 3.35758 1.01598 5.67598 
310 1 1 3.97557 0.729824 4.93487 
316 1 1 4.76686 0.825826 5.61673 
314 1 1 5.5741 0.721527 4.84217 
320 1 1 6.41187 0.883024 5.69036 
335 1 1 5.67918 1.62071 5.58388 
318 1 1 7.21692 0.894623 5.03327 
321 1 1 7.96043 1.68907 4.77756 
339 1 1 7.29389 1.64483 5.77782 
437 1 1 6.40115 1.49096 6.47559 
323 1 1 0.732242 1.75241 5.43565 
322 1 1 0.639748 2.54591 4.66621 
324 1 1 7.9561 2.38271 5.65137 
328 1 1 1.64013 2.42437 5.52562 
425 1 1 1.49108 1.5123 6.19248 
347 1 1 2.41978 3.09745 5.79097 
332 1 1 3.41538 2.26332 5.56797 
426 1 1 2.28753 2.41475 6.45291 
330 1 1 4.16707 2.4424 4.98268 
331 1 1 4.1821 1.65732 5.64215 
430 1 1 3.99136 2.55908 6.53647 
336 1 1 4.85146 2.57864 5.82421 
351 1 1 3.62059 3.15662 5.69804 
333 1 1 4.76926 1.59589 4.75642 
337 1 1 6.41424 1.44419 4.72941 
340 1 1 6.45579 2.36958 5.75208 
355 1 1 5.59067 3.44201 5.7211 
434 1 1 5.57294 2.5742 6.50263 
338 1 1 7.14917 2.30425 4.97015 
359 1 1 7.26364 3.1941 5.61779 
438 1 1 7.21049 2.61951 6.42891 
342 1 1 0.917026 4.33127 4.77902 
343 1 1 0.771442 3.03867 5.62902 
348 1 1 1.52261 3.9013 5.51967 
344 1 1 7.97699 3.98222 5.56065 
369 1 1 2.98804 4.89726 4.82441 
446 1 1 2.27599 3.93049 6.31342 
469 1 1 3.29415 4.71036 6.4185 
352 1 1 3.03254 4.04662 5.48102 
350 1 1 3.9907 3.99649 4.91062 
356 1 1 4.89395 4.24293 5.64572 
371 1 1 3.91916 4.88542 5.46603 
450 1 1 3.94855 3.97872 6.22039 
354 1 1 5.66174 4.13196 4.92067 
357 1 1 6.17579 3.25879 4.89155 
375 1 1 5.77224 4.89637 5.69062 
377 1 1 6.58954 4.73778 4.93624 
341 1 1 7.95294 3.14496 4.8468 
379 1 1 7.16347 3.94321 4.78279 
360 1 1 6.44573 3.97277 5.61786 
361 1 1 7.99634 4.89697 4.90037 
363 1 1 0.792874 4.95625 5.78889 
462 1 1 0.658893 5.70454 6.51031 
364 1 1 8.03782 5.54502 5.71626 
383 1 1 0.864526 6.42278 5.58739 
465 1 1 1.65977 4.75442 6.70675 
367 1 1 2.46592 4.86461 5.80915 
368 1 1 1.58754 5.6048 5.88014 
372 1 1 3.15655 5.61181 5.5482 
387 1 1 2.49984 6.48851 5.72869 
466 1 1 2.38639 5.73857 6.54251 
370 1 1 3.99434 5.49004 4.63312 
470 1 1 3.95651 5.62634 6.33194 
373 1 1 4.78745 4.895 4.75411 
374 1 1 5.78038 5.58472 4.99045 
376 1 1 4.66343 5.66717 5.48769 
380 1 1 6.54919 5.67917 5.87395 
395 1 1 5.75294 6.32307 5.71079 
493 1 1 4.95007 6.31423 6.39931 
381 1 1 0.140969 6.18565 4.9571 
397 1 1 6.51865 6.45458 4.98184 
478 1 1 7.28152 4.69892 5.78601 
378 1 1 7.21641 5.61321 5.1191 
382 1 1 0.855011 7.36255 4.74107 
303 1 1 0.773987 7.90324 5.66509 
305 1 1 1.67525 0.00191438 4.84939 
482 1 1 0.984733 7.15811 6.41329 
307 1 1 2.51041 0.0149021 5.50496 
388 1 1 1.68732 7.25244 5.65283 
392 1 1 3.35885 7.22155 5.7059 
405 1 1 1.68471 0.0532053 6.39916 
391 1 1 4.05146 6.40415 5.74127 
311 1 1 4.06872 0.163435 5.82332 
394 1 1 5.78248 7.29215 4.9559 
315 1 1 5.87964 0.0323338 5.60934 
396 1 1 4.90133 7.24408 5.69425 
313 1 1 4.93157 7.87223 4.95682 
319 1 1 7.27967 0.0576469 5.8048 
400 1 1 6.43637 7.18644 5.94497 
399 1 1 7.19127 6.53201 5.82696 
384 1 1 8.04209 7.08991 5.67325 
402 1 1 0.819065 0.807802 6.37479 
403 1 1 0.941505 0.0875892 7.31331 
408 1 1 1.69924 0.805006 7.06613 
404 1 1 8.00489 0.789081 7.31171 
421 1 1 0.0238055 1.52482 6.51818 
401 1 1 0.101752 0.0191045 6.45149 
427 1 1 2.37147 1.68337 7.01633 
407 1 1 2.44694 0.0647675 7.23749 
10 1 1 4.11033 0.908822 8.06984 
412 1 1 3.07068 0.820995 7.13622 
410 1 1 4.01546 0.938018 6.51893 
431 1 1 4.06842 1.88629 7.41474 
416 1 1 4.85342 0.932605 7.16822 
414 1 1 5.67354 0.846192 6.56488 
417 1 1 6.4214 0.0237251 6.66492 
37 1 1 6.35208 1.83416 0.0174664 
18 1 1 7.11698 0.875173 0.109161 
420 1 1 6.47206 0.888548 7.34782 
418 1 1 7.21371 0.767897 6.49612 
419 1 1 7.18397 0.0520941 7.33066 
439 1 1 7.17748 1.74558 7.33808 
45 1 1 1.79112 3.09039 0.119518 
422 1 1 0.873305 2.31745 6.43557 
423 1 1 0.907225 1.54787 7.16518 
443 1 1 0.896253 3.23078 7.39845 
49 1 1 3.33281 3.24679 7.97874 
428 1 1 1.59679 2.38076 7.12478 
26 1 1 2.47158 2.43759 8.06412 
432 1 1 3.12841 2.39862 7.252 
29 1 1 3.17751 1.56866 7.91176 
433 1 1 4.88436 1.7137 6.48793 
436 1 1 4.87365 2.4763 7.21545 
451 1 1 4.1582 3.34406 7.29435 
453 1 1 4.71017 3.45505 6.46123 
435 1 1 5.60939 1.68188 7.24445 
455 1 1 5.60176 3.25691 7.26847 
41 1 1 7.97349 3.1544 8.02309 
424 1 1 8.03805 2.48751 7.17915 
440 1 1 6.39426 2.51099 7.13326 
38 1 1 7.24192 2.52393 0.139343 
459 1 1 7.12336 3.27765 7.25034 
57 1 1 6.41933 3.1698 0.02725 
42 1 1 0.791951 3.97778 0.122248 
441 1 1 8.06011 3.21006 6.34691 
442 1 1 0.934263 3.99039 6.46402 
445 1 1 1.61229 3.22485 6.40254 
447 1 1 2.48235 3.62423 7.30556 
448 1 1 1.52112 3.9763 7.49387 
452 1 1 3.38393 4.05956 7.23078 
50 1 1 4.02561 4.14286 0.067594 
449 1 1 3.09694 3.34017 6.58086 
471 1 1 4.03768 5.10025 7.33091 
73 1 1 4.81781 4.7928 0.336271 
454 1 1 5.70122 4.13142 6.56135 
457 1 1 6.44067 3.32586 6.35418 
456 1 1 4.7804 4.1213 7.29592 
475 1 1 5.54765 4.77422 7.41601 
61 1 1 0.0209024 4.65206 0.0642767 
77 1 1 6.63575 4.83555 0.0175201 
458 1 1 7.23771 3.91579 6.44932 
444 1 1 8.02106 3.98355 7.21472 
460 1 1 6.4382 4.04652 7.48446 
481 1 1 0.0459059 6.4551 6.51709 
463 1 1 0.777201 4.95945 7.39761 
461 1 1 8.07088 4.69853 6.4793 
485 1 1 1.66759 6.55739 6.51051 
483 1 1 0.848434 6.48273 7.30583 
464 1 1 0.0123254 5.6722 7.54714 
467 1 1 2.52545 4.7762 7.21934 
468 1 1 1.7088 5.57678 7.35792 
472 1 1 3.12644 5.77814 7.32265 
473 1 1 4.69769 4.84254 6.57024 
476 1 1 4.9912 5.72322 7.30757 
491 1 1 4.05071 6.44306 7.13174 
97 1 1 6.46925 6.36867 8.07227 
474 1 1 5.64488 5.50729 6.56878 
480 1 1 6.42058 5.55604 7.33184 
495 1 1 5.7179 6.37696 7.39093 
79 1 1 7.27648 5.64247 0.222435 
477 1 1 6.55393 4.73207 6.62247 
499 1 1 7.32759 5.63303 6.58498 
479 1 1 7.36384 4.96402 7.33597 
78 1 1 7.26096 6.34696 7.2291 
484 1 1 0.0188692 7.38089 7.25512 
489 1 1 3.28775 6.50129 6.45915 
487 1 1 2.31387 6.47577 7.29328 
488 1 1 1.5778 7.27149 7.40699 
486 1 1 2.41683 7.23584 6.559 
409 1 1 3.22487 8.07471 6.47443 
490 1 1 4.25777 7.41002 6.53821 
413 1 1 4.97788 0.112349 6.46077 
411 1 1 3.95266 0.279264 7.22768 
492 1 1 3.25884 7.37348 7.38617 
496 1 1 4.98845 7.15434 7.33794 
415 1 1 5.61295 0.262505 7.35189 
494 1 1 5.67918 7.13063 6.63602 
17 1 1 6.42703 0.0293313 8.02436 
498 1 1 7.44442 7.30152 6.5006 
497 1 1 6.42008 6.32699 6.64347 
500 1 1 6.52505 7.20032 7.33994 
