ITEM: TIMESTEP
35000
ITEM: NUMBER OF ATOMS
500
ITEM: BOX BOUNDS pp pp pp
0 8.07388
0 8.07388
0 8.07388
ITEM: ATOMS id type mass x y z 
2 1 1 0.631205 0.804445 7.93926 
102 1 1 0.77149 1.02112 1.69675 
125 1 1 1.76961 1.67796 1.73958 
3 1 1 0.795132 0.288424 0.814115 
21 1 1 7.99547 1.60817 7.96529 
25 1 1 1.45321 1.40561 0.189642 
8 1 1 1.67276 0.991786 1.05828 
27 1 1 2.51877 1.68486 0.979327 
105 1 1 1.76625 8.01014 1.62425 
6 1 1 2.43656 0.853723 0.229411 
9 1 1 3.21118 -0.00323848 0.0849244 
12 1 1 3.22185 0.812072 0.851963 
31 1 1 4.01794 1.66207 0.776316 
10 1 1 4.16069 0.779888 0.122049 
16 1 1 4.91789 0.885992 0.984468 
14 1 1 5.7333 0.765087 0.0752147 
15 1 1 5.63851 0.0499324 0.844384 
35 1 1 5.58635 1.66473 0.796182 
4 1 1 8.02709 1.01215 0.778142 
20 1 1 6.49234 0.843172 0.78428 
23 1 1 0.753784 1.66447 0.761564 
24 1 1 7.90644 2.41882 0.890846 
122 1 1 0.963928 2.26837 1.77742 
22 1 1 0.887691 2.21783 8.03731 
28 1 1 1.6229 2.20956 0.819438 
26 1 1 2.46087 2.34885 7.93597 
126 1 1 2.69065 2.45004 1.71207 
47 1 1 2.59165 3.27192 0.723345 
32 1 1 3.23288 2.44758 0.787161 
51 1 1 3.97051 3.27601 0.7611 
149 1 1 3.43006 3.28012 1.79196 
36 1 1 4.89701 2.45542 0.795807 
53 1 1 4.852 3.33917 0.0129195 
55 1 1 5.60004 3.5086 0.78464 
34 1 1 5.5397 2.44134 0.0608538 
57 1 1 6.54534 2.97936 0.10186 
133 1 1 4.74718 1.66588 1.71252 
40 1 1 6.43765 2.40437 0.943095 
39 1 1 7.19281 1.65224 0.902695 
137 1 1 6.27338 1.62936 1.61357 
43 1 1 0.863474 3.18438 0.845908 
48 1 1 1.51593 3.89045 0.896669 
44 1 1 7.99972 4.13989 0.94463 
145 1 1 1.75178 3.07561 1.42029 
61 1 1 8.04816 4.7698 7.99518 
46 1 1 2.4738 3.97902 0.018407 
146 1 1 2.44167 3.94571 1.60818 
52 1 1 3.32942 4.06391 1.00357 
56 1 1 4.72076 4.06259 0.914555 
71 1 1 3.949 4.94826 0.81606 
50 1 1 4.00567 4.08489 0.106973 
69 1 1 3.07471 4.74743 0.135213 
54 1 1 5.61113 4.17306 7.97926 
75 1 1 5.67216 4.94137 0.952403 
60 1 1 6.52177 4.01794 0.908658 
177 1 1 6.54867 4.8075 1.68401 
59 1 1 7.26389 3.28519 0.880109 
141 1 1 0.0687818 3.26065 1.46437 
163 1 1 0.0404316 4.99156 1.67257 
158 1 1 7.3338 4.04259 1.62055 
58 1 1 7.36424 4.01152 0.0530945 
63 1 1 0.778516 4.71935 0.865653 
64 1 1 7.96139 5.60415 0.801358 
81 1 1 0.0968059 6.55016 0.0174872 
83 1 1 0.719505 6.48029 0.780756 
185 1 1 1.50828 6.54977 1.46553 
85 1 1 1.50274 6.62762 8.03964 
68 1 1 1.78608 5.69739 0.902995 
67 1 1 2.31131 4.58851 0.829046 
66 1 1 2.4622 5.72964 8.05074 
72 1 1 3.0599 5.70839 0.838806 
76 1 1 4.79419 5.67802 0.998741 
91 1 1 4.07047 6.55524 0.832119 
93 1 1 4.84817 6.64259 0.0670389 
174 1 1 5.73849 5.73098 1.59584 
74 1 1 5.84566 5.64117 0.0347841 
161 1 1 7.2476 4.86902 0.920475 
80 1 1 6.54668 5.63291 0.931377 
99 1 1 7.34344 6.44263 0.700257 
5 1 1 1.38816 0.163094 0.0438622 
82 1 1 0.811425 7.39493 7.82755 
7 1 1 2.3318 7.90894 0.692337 
87 1 1 2.25474 6.66645 0.739073 
88 1 1 1.54783 7.3642 0.713377 
189 1 1 3.13786 6.37082 1.57446 
86 1 1 2.43593 7.34762 7.95721 
92 1 1 3.28928 7.11494 0.742781 
11 1 1 4.06168 7.99624 0.894848 
89 1 1 3.25953 6.49442 7.90144 
90 1 1 4.13425 7.36491 8.01254 
95 1 1 5.8087 6.4424 0.850715 
96 1 1 4.9668 7.40598 0.878551 
194 1 1 5.74592 7.294 1.62276 
94 1 1 5.73257 7.32087 0.176892 
197 1 1 6.50393 6.49362 1.51496 
100 1 1 6.57888 7.29862 0.891258 
117 1 1 6.4568 0.0287153 1.61772 
19 1 1 7.30228 0.195663 0.942588 
84 1 1 7.89258 7.36194 0.760936 
98 1 1 7.21624 7.23491 -0.0153274 
108 1 1 1.54525 0.714012 2.28731 
205 1 1 1.55122 7.98833 3.10538 
106 1 1 2.60594 0.661277 1.78088 
206 1 1 2.27801 0.591634 3.23823 
110 1 1 4.04965 0.849713 1.61759 
112 1 1 3.26198 0.721301 2.61412 
111 1 1 4.16321 8.06478 2.5743 
114 1 1 5.65236 0.724158 1.71072 
116 1 1 4.81284 0.78396 2.45941 
120 1 1 6.49145 0.999654 2.51672 
135 1 1 5.58332 1.63005 2.44136 
115 1 1 5.78284 -0.00656439 2.43084 
101 1 1 0.0207847 0.0891582 1.60342 
104 1 1 0.00972658 0.818267 2.5186 
118 1 1 7.1416 0.916459 1.69944 
123 1 1 0.634187 1.55916 2.61289 
222 1 1 0.721535 2.53756 3.13238 
124 1 1 8.08373 2.41759 2.33188 
128 1 1 1.63443 2.47676 2.67823 
221 1 1 8.0218 1.77747 3.30363 
241 1 1 8.05808 3.25363 3.03998 
127 1 1 2.44478 1.49719 2.53872 
132 1 1 3.4298 2.44826 2.44988 
147 1 1 2.43173 3.20655 2.4459 
225 1 1 1.60531 1.54273 3.13878 
226 1 1 2.47445 2.40885 3.28281 
249 1 1 3.36856 3.39656 3.02065 
129 1 1 3.38421 1.64184 1.64985 
130 1 1 4.09124 2.49191 1.51565 
131 1 1 4.11616 1.53831 2.49141 
151 1 1 4.21105 3.16368 2.39801 
153 1 1 4.80762 3.27034 1.63542 
230 1 1 4.09247 2.51401 3.23021 
136 1 1 4.89854 2.39051 2.446 
134 1 1 5.56682 2.50828 1.53976 
140 1 1 6.28831 2.3552 2.37123 
155 1 1 5.67283 3.20363 2.34495 
121 1 1 7.98939 1.57397 1.78341 
139 1 1 7.19662 1.71252 2.56609 
138 1 1 7.19809 2.40529 1.68818 
157 1 1 6.38143 3.24445 1.65512 
238 1 1 7.25521 2.53886 3.21176 
165 1 1 1.52594 4.84134 1.54013 
143 1 1 0.828535 3.32752 2.34128 
142 1 1 0.676444 4.15912 1.73565 
242 1 1 0.796058 4.84673 2.50868 
245 1 1 1.79334 3.26312 3.24669 
148 1 1 1.70162 3.99241 2.50912 
167 1 1 2.52611 4.86849 2.38205 
173 1 1 4.80355 4.87786 1.61088 
152 1 1 3.1765 4.0688 2.33447 
150 1 1 4.0323 4.18187 1.74475 
171 1 1 3.95782 4.81331 2.45731 
269 1 1 3.38988 4.87617 3.1711 
250 1 1 4.13908 4.12911 3.2031 
154 1 1 5.73887 4.05052 1.65866 
156 1 1 4.86069 4.08304 2.38318 
175 1 1 5.68628 4.83786 2.35191 
159 1 1 7.30811 3.32147 2.28627 
144 1 1 0.0173882 4.16121 2.47433 
261 1 1 7.98809 4.87482 3.13479 
160 1 1 6.47338 4.05155 2.50656 
179 1 1 7.23007 4.97734 2.38991 
162 1 1 0.869402 5.60893 1.436 
183 1 1 0.870616 6.35883 2.30974 
181 1 1 0.113417 6.35577 1.62816 
166 1 1 2.26946 5.819 1.76184 
168 1 1 1.64278 5.54456 2.58555 
172 1 1 3.32442 5.69017 2.44634 
169 1 1 3.0744 5.00295 1.53854 
170 1 1 4.01074 5.55993 1.70708 
191 1 1 3.97244 6.47899 2.60161 
270 1 1 4.18094 5.61029 3.4211 
293 1 1 4.87569 6.42767 3.35237 
273 1 1 5.05506 4.86441 3.40431 
193 1 1 5.02683 6.51509 1.68409 
176 1 1 4.83058 5.48698 2.52882 
180 1 1 6.28861 5.62883 2.46638 
195 1 1 5.65258 6.46843 2.50125 
164 1 1 8.05981 5.80473 2.60727 
178 1 1 7.2834 5.80325 1.67391 
278 1 1 6.99496 5.71107 3.20917 
199 1 1 7.17113 6.45751 2.49238 
182 1 1 0.791571 7.42481 1.36831 
281 1 1 8.00221 6.55144 3.29037 
103 1 1 0.787635 8.08118 2.31535 
186 1 1 2.56698 7.18855 1.65482 
187 1 1 2.33086 6.35269 2.65487 
109 1 1 3.3805 7.93046 1.87838 
107 1 1 2.47103 8.03112 2.47679 
188 1 1 1.53676 7.3422 2.31513 
192 1 1 3.09956 7.09379 2.55876 
190 1 1 4.20306 7.27593 1.60061 
113 1 1 5.04853 8.00634 1.73131 
196 1 1 4.80939 7.24175 2.61932 
198 1 1 7.29548 7.31915 1.65023 
184 1 1 0.167051 7.11787 2.26482 
200 1 1 6.44337 7.26395 2.33909 
119 1 1 7.51299 0.0334433 2.41447 
202 1 1 0.901161 0.766558 3.23848 
208 1 1 1.68905 0.78731 4.02109 
302 1 1 0.898928 0.761008 4.86075 
212 1 1 3.15418 0.834095 3.75392 
207 1 1 2.31131 7.97587 4.03732 
210 1 1 4.05206 0.766403 3.24401 
231 1 1 4.06757 1.65543 3.97046 
313 1 1 4.69498 0.0163578 4.82997 
209 1 1 3.17771 7.97495 3.206 
211 1 1 3.89805 8.00337 4.11145 
329 1 1 3.27136 1.65146 4.65214 
214 1 1 5.55727 0.841328 3.16098 
213 1 1 4.91374 0.0390532 3.23749 
216 1 1 4.74602 0.749516 4.09328 
220 1 1 6.27719 0.752737 4.16816 
233 1 1 4.90028 1.62477 3.2794 
204 1 1 0.0541218 0.822208 3.87441 
218 1 1 7.26358 0.818753 3.19538 
318 1 1 7.24329 0.976597 4.9005 
321 1 1 0.107421 1.58914 4.88808 
301 1 1 0.104039 8.01575 5.01523 
223 1 1 0.858933 1.47047 3.98253 
325 1 1 1.60253 1.67769 4.89683 
224 1 1 7.8483 2.37309 4.18044 
322 1 1 0.872932 2.36218 4.73465 
229 1 1 3.39643 1.69322 3.11014 
227 1 1 2.48247 1.56047 3.90713 
228 1 1 1.52374 2.36761 4.00116 
247 1 1 2.37287 3.14384 4.03654 
232 1 1 3.2785 2.42895 3.91759 
234 1 1 5.70396 2.37287 3.16362 
236 1 1 4.80772 2.40894 4.00119 
253 1 1 5.05605 3.10112 3.16197 
235 1 1 5.62603 1.50286 4.06574 
255 1 1 5.7541 3.19656 3.94644 
337 1 1 6.41988 1.57143 4.77188 
237 1 1 6.46715 1.47241 3.41576 
239 1 1 7.23821 1.52535 4.05339 
240 1 1 6.47771 2.45061 3.96606 
244 1 1 0.861226 4.06257 3.19049 
243 1 1 0.759574 3.02684 3.9728 
263 1 1 0.733612 4.74551 4.10334 
358 1 1 8.01247 4.08237 3.88188 
342 1 1 0.832351 3.81212 4.70769 
246 1 1 2.54122 4.19225 3.16771 
248 1 1 1.691 3.92113 3.99071 
252 1 1 3.13296 3.85396 3.94969 
251 1 1 4.04354 3.36377 4.01282 
256 1 1 4.93914 4.05266 4.02736 
349 1 1 3.30003 3.22665 4.82907 
254 1 1 5.71598 3.97214 3.20487 
257 1 1 6.44086 3.24848 3.11192 
373 1 1 4.95743 4.64859 4.99987 
275 1 1 5.79777 4.98317 4.15026 
277 1 1 6.3806 4.89454 3.20708 
258 1 1 7.20172 3.96723 3.14991 
260 1 1 6.37934 4.14277 3.97696 
259 1 1 7.22869 3.20119 3.93655 
262 1 1 0.799284 5.66091 3.25233 
285 1 1 1.44346 6.44114 3.25419 
283 1 1 0.701143 6.54651 4.03787 
264 1 1 -0.0185068 5.55458 3.90635 
365 1 1 1.54614 4.64265 4.85505 
266 1 1 2.52791 5.52205 3.27673 
265 1 1 1.65078 4.8442 3.36245 
267 1 1 2.31101 4.82873 4.11046 
268 1 1 1.56098 5.72577 4.09613 
272 1 1 3.2554 5.39899 4.13621 
271 1 1 4.12297 4.78622 4.18775 
291 1 1 3.93663 6.60046 4.0639 
276 1 1 4.86206 5.60365 4.13248 
274 1 1 5.72727 5.75534 3.33553 
374 1 1 5.64353 5.7682 4.84449 
397 1 1 6.42316 6.56023 4.91431 
295 1 1 5.59964 6.49528 4.10949 
279 1 1 7.15238 4.87424 4.06535 
280 1 1 6.54402 5.81838 4.22048 
297 1 1 6.5182 6.59415 3.21398 
299 1 1 7.2674 6.64817 4.00412 
381 1 1 0.0424922 6.48021 4.9681 
378 1 1 7.40997 5.83055 4.81271 
203 1 1 0.937583 8.04643 4.10822 
282 1 1 0.85534 7.23893 3.11325 
201 1 1 0.0149943 7.99734 3.3299 
382 1 1 0.958727 7.23091 4.94258 
287 1 1 2.37394 6.38134 4.00194 
286 1 1 2.29667 7.20512 3.25263 
288 1 1 1.57341 7.15953 4.19232 
292 1 1 2.97345 7.27058 4.08007 
386 1 1 2.36808 7.04467 4.90224 
289 1 1 3.28712 6.37409 3.26377 
290 1 1 3.96703 7.27005 3.32518 
390 1 1 3.95227 7.22698 4.92403 
389 1 1 3.2106 6.25862 4.86144 
393 1 1 4.8133 6.42832 4.86622 
294 1 1 5.72249 7.3108 3.26171 
215 1 1 5.7661 8.00311 4.09652 
296 1 1 4.92119 7.34599 4.09739 
394 1 1 5.68672 7.40882 4.87994 
284 1 1 8.01297 7.31581 4.24836 
217 1 1 6.43701 0.0690909 3.25716 
300 1 1 6.55639 7.29206 4.2274 
219 1 1 7.33831 0.116394 4.04164 
298 1 1 7.19519 7.42122 3.22309 
398 1 1 7.31002 7.52145 4.98855 
317 1 1 6.64232 0.136 4.8865 
303 1 1 0.796433 7.91179 5.7512 
305 1 1 1.68371 7.90106 4.95533 
405 1 1 1.66698 0.0850654 6.39312 
421 1 1 8.02779 1.67642 6.34246 
308 1 1 1.61273 0.816037 5.69024 
306 1 1 2.45072 0.585073 4.82245 
309 1 1 3.20294 7.93919 4.91337 
310 1 1 3.86985 0.771028 4.77799 
333 1 1 4.6178 1.56348 4.81823 
312 1 1 3.26078 0.745343 5.64623 
311 1 1 4.08356 8.02602 5.60933 
410 1 1 4.14575 0.892071 6.47579 
314 1 1 5.4474 0.802018 4.91359 
316 1 1 4.75801 0.728782 5.63677 
320 1 1 6.36046 0.8194 5.56351 
414 1 1 5.71549 0.842104 6.3591 
304 1 1 0.0417961 0.921682 5.605 
418 1 1 7.12808 0.902068 6.44363 
323 1 1 0.844847 1.71123 5.58329 
425 1 1 1.80724 1.61648 6.38651 
328 1 1 1.64586 2.45549 5.65594 
324 1 1 0.0021891 2.46702 5.62407 
422 1 1 0.945619 2.54063 6.48001 
327 1 1 2.6009 1.57709 5.56494 
326 1 1 2.32005 2.39261 4.87053 
426 1 1 2.53709 2.3574 6.32855 
449 1 1 3.21962 3.21182 6.55238 
331 1 1 3.90738 1.45699 5.6581 
330 1 1 4.13384 2.49124 4.81873 
332 1 1 3.18715 2.38132 5.56208 
430 1 1 3.95323 2.2869 6.32751 
336 1 1 4.91588 2.44926 5.63358 
335 1 1 5.46824 1.54956 5.58908 
334 1 1 5.51975 2.17054 4.80479 
340 1 1 6.25848 2.30468 5.59837 
338 1 1 7.10033 2.3827 4.9068 
339 1 1 7.20975 1.66576 5.71481 
438 1 1 7.27878 2.42267 6.75323 
343 1 1 0.720217 3.15381 5.58007 
345 1 1 1.58282 3.20856 4.85441 
348 1 1 1.58116 3.92285 5.59009 
347 1 1 2.47603 3.22606 5.57387 
346 1 1 2.50027 4.07453 4.77876 
446 1 1 2.61201 4.10695 6.54003 
350 1 1 4.24332 3.89272 4.93254 
353 1 1 5.05025 3.16319 4.72549 
369 1 1 3.34244 4.56412 4.84661 
351 1 1 3.95998 3.08772 5.72732 
352 1 1 3.23122 3.8853 5.7178 
356 1 1 4.77598 4.17566 5.91409 
354 1 1 5.73544 4.01422 4.8833 
377 1 1 6.48358 4.98642 4.99541 
357 1 1 6.24332 3.01047 4.84799 
355 1 1 5.41756 3.40878 5.72802 
360 1 1 6.46769 4.07625 5.75196 
341 1 1 7.90462 3.45768 4.71761 
379 1 1 7.04433 3.96542 4.90296 
359 1 1 7.28196 3.29814 5.71593 
344 1 1 7.87817 4.07984 5.62171 
362 1 1 0.794873 5.56781 4.76574 
363 1 1 0.81702 4.7241 5.52399 
383 1 1 0.9938 6.50135 5.63203 
465 1 1 1.68571 4.66928 6.35235 
367 1 1 2.54497 4.93841 5.49961 
368 1 1 1.56011 5.60784 5.79391 
366 1 1 2.36282 5.70823 4.79797 
466 1 1 2.30207 5.69231 6.57246 
371 1 1 4.05379 4.8665 5.58172 
370 1 1 4.07572 5.65451 4.84894 
372 1 1 3.37854 5.58046 5.67593 
376 1 1 4.86074 5.72974 5.67852 
473 1 1 4.71255 4.99859 6.59163 
470 1 1 4.08997 5.84397 6.40807 
375 1 1 5.59806 5.07317 5.65906 
380 1 1 6.43986 5.72622 5.60727 
477 1 1 6.49874 4.96618 6.31837 
474 1 1 5.71264 5.6674 6.47497 
497 1 1 6.48288 6.52907 6.38652 
361 1 1 7.87639 4.78855 4.83643 
478 1 1 7.27234 4.93242 5.62599 
364 1 1 0.0672241 5.43295 5.50093 
399 1 1 7.24577 6.41544 5.63471 
384 1 1 0.019797 7.25808 5.7111 
482 1 1 0.694777 7.20065 6.48985 
388 1 1 1.71969 7.22115 5.7761 
307 1 1 2.47426 7.93664 5.78541 
385 1 1 1.60486 6.43569 4.835 
387 1 1 2.38545 6.37528 5.67956 
486 1 1 2.46982 7.40353 6.66022 
485 1 1 1.53691 6.26189 6.57341 
392 1 1 3.21603 7.13134 5.78289 
391 1 1 4.07088 6.4968 5.7185 
396 1 1 4.82526 7.15701 5.64064 
315 1 1 5.47483 -0.00265509 5.7372 
395 1 1 5.6758 6.39262 5.58211 
494 1 1 5.73839 7.26269 6.40034 
400 1 1 6.49993 7.25625 5.65046 
319 1 1 7.39218 0.15734 5.8118 
417 1 1 6.56186 0.096004 6.35174 
481 1 1 8.0177 6.3134 6.2535 
498 1 1 7.19365 7.33906 6.4773 
402 1 1 0.727099 0.925503 6.2898 
408 1 1 1.57378 0.811968 7.2538 
404 1 1 7.89526 0.887861 7.22803 
429 1 1 3.2447 1.42381 6.49741 
406 1 1 2.39777 0.818912 6.57386 
427 1 1 2.40561 1.49803 7.36922 
407 1 1 2.40506 0.14003 7.38317 
412 1 1 3.25226 0.780081 7.30467 
33 1 1 4.92183 1.52444 -0.0107819 
413 1 1 4.74316 0.0422295 6.4845 
433 1 1 4.86146 1.63301 6.60121 
411 1 1 4.08734 0.149782 7.21644 
431 1 1 4.14502 1.5662 7.34044 
13 1 1 4.81278 0.0485602 0.101108 
416 1 1 4.92264 0.793682 7.42689 
420 1 1 6.54365 0.644135 7.30608 
18 1 1 7.18004 0.776629 0.0343477 
37 1 1 6.42673 1.68426 0.0947069 
419 1 1 7.36069 8.03216 7.20939 
401 1 1 8.0683 0.0270886 6.47366 
45 1 1 1.52948 3.14624 0.0941276 
423 1 1 0.84208 1.53267 7.27689 
424 1 1 0.193833 2.42728 7.13409 
443 1 1 0.874265 3.20399 7.30506 
445 1 1 1.84312 3.10208 6.43807 
428 1 1 1.62212 2.2812 7.22858 
432 1 1 3.2001 2.24929 7.21873 
29 1 1 3.20349 1.64941 0.00589481 
49 1 1 3.15451 3.15589 7.94611 
447 1 1 2.31801 3.18481 7.30456 
30 1 1 3.96943 2.31603 0.020879 
453 1 1 4.75143 3.38736 6.50417 
451 1 1 4.14515 3.10214 7.35023 
436 1 1 4.92544 2.35928 7.32177 
437 1 1 6.28123 1.72512 6.37019 
434 1 1 5.56726 2.49361 6.43487 
435 1 1 5.86908 1.43286 7.32963 
455 1 1 5.47692 3.38192 7.25849 
38 1 1 7.3296 2.42231 7.83721 
41 1 1 -0.00271681 3.15509 0.0589547 
440 1 1 6.23914 2.4597 7.25357 
439 1 1 6.88695 1.64443 7.2169 
42 1 1 0.779887 4.06016 7.91978 
442 1 1 0.687983 4.03459 6.22958 
444 1 1 7.90263 3.98733 7.16813 
448 1 1 1.61753 3.85296 7.13059 
452 1 1 3.2702 4.17852 7.44634 
65 1 1 1.65675 4.70254 8.03899 
450 1 1 3.8612 4.01659 6.50992 
456 1 1 4.82314 4.23406 7.35283 
471 1 1 4.09568 4.85703 7.38041 
73 1 1 4.80919 4.97272 0.119098 
77 1 1 6.46386 4.75655 0.141625 
457 1 1 6.40066 3.19298 6.3649 
454 1 1 5.62504 4.28794 6.41007 
460 1 1 6.42673 3.9988 7.15288 
458 1 1 7.16979 3.89228 6.42479 
461 1 1 8.00837 4.79016 6.35013 
441 1 1 7.98473 3.1485 6.54093 
459 1 1 7.17928 3.20391 7.32084 
479 1 1 7.23622 4.58686 7.20515 
62 1 1 0.771479 5.58196 0.203089 
463 1 1 0.614682 4.71693 7.15607 
462 1 1 0.836031 5.58582 6.57682 
464 1 1 0.0682578 5.59637 7.23803 
468 1 1 1.40726 5.55096 7.47755 
467 1 1 2.39747 4.8477 7.33552 
469 1 1 3.26815 4.91124 6.44655 
472 1 1 3.23187 5.65924 7.31663 
487 1 1 2.42929 6.53009 7.35761 
70 1 1 3.85256 5.63654 0.0914157 
476 1 1 4.80791 5.7069 7.36975 
475 1 1 5.70651 4.82265 7.24987 
495 1 1 5.64131 6.4542 7.4067 
480 1 1 6.41936 5.77716 7.20989 
79 1 1 7.13225 5.41533 7.83431 
499 1 1 7.25269 5.62184 6.50973 
97 1 1 6.67169 6.37943 7.99531 
483 1 1 0.738199 6.44739 7.26512 
403 1 1 0.847405 0.163545 7.11123 
488 1 1 1.67324 7.32857 7.25068 
409 1 1 3.30783 8.01381 6.50368 
489 1 1 3.15369 6.43468 6.6232 
490 1 1 4.15422 7.28384 6.56057 
492 1 1 3.40569 7.32214 7.30237 
491 1 1 4.08942 6.55168 7.34401 
493 1 1 4.96912 6.51972 6.52657 
415 1 1 5.67846 0.160758 7.20044 
496 1 1 5.08376 7.36716 7.41518 
1 1 1 8.048 0.0774322 0.111989 
17 1 1 6.46053 0.0257277 0.131744 
78 1 1 7.35639 6.5085 7.19209 
500 1 1 6.38984 7.2129 7.42509 
484 1 1 8.06527 7.33429 7.32305 
