ITEM: TIMESTEP
30000
ITEM: NUMBER OF ATOMS
500
ITEM: BOX BOUNDS pp pp pp
0 8.07388
0 8.07388
0 8.07388
ITEM: ATOMS id type mass x y z 
2 1 1 0.939245 0.873262 0.069058 
102 1 1 0.840069 0.709292 1.73839 
4 1 1 0.0331759 0.744281 0.914703 
23 1 1 0.75903 1.71354 0.82885 
21 1 1 0.0557261 1.62938 0.0206163 
8 1 1 1.53387 0.829234 0.997677 
7 1 1 2.52642 0.148707 0.935727 
12 1 1 3.27544 0.821165 0.799414 
25 1 1 1.70377 1.72475 8.06626 
106 1 1 2.38791 0.809718 1.68601 
31 1 1 4.01159 1.54059 0.727665 
16 1 1 4.81972 0.826864 0.58914 
129 1 1 3.28133 1.70003 1.6149 
110 1 1 4.14793 0.900901 1.6538 
10 1 1 4.00314 0.764661 8.03747 
14 1 1 5.65393 0.951057 7.98272 
35 1 1 5.57341 1.6173 0.732992 
20 1 1 6.41606 0.92239 0.769117 
118 1 1 7.30006 0.961026 1.62585 
39 1 1 7.25708 1.69346 0.808626 
18 1 1 7.46787 0.873651 0.111206 
17 1 1 6.54983 0.000328905 0.0654781 
1 1 1 0.164282 8.00204 0.233931 
24 1 1 8.04665 2.41733 0.964801 
22 1 1 0.776777 2.38656 8.02666 
27 1 1 2.3747 1.80687 0.746471 
28 1 1 1.58548 2.44762 0.75649 
26 1 1 2.4199 2.47492 7.98852 
47 1 1 2.46752 3.30008 0.802142 
149 1 1 3.21512 3.16101 1.49052 
145 1 1 1.82492 3.22342 1.51385 
29 1 1 3.17536 1.59748 0.154199 
32 1 1 3.27726 2.54981 0.652472 
36 1 1 4.8326 2.47163 0.797222 
40 1 1 6.34384 2.42368 0.852555 
55 1 1 5.60533 3.19075 0.834064 
134 1 1 5.60174 2.57369 1.75584 
59 1 1 7.20754 3.21317 0.882554 
57 1 1 6.35293 3.26176 8.00906 
43 1 1 0.889658 3.17325 0.778358 
45 1 1 1.69669 3.29337 0.0462253 
63 1 1 0.832491 4.75412 0.873804 
65 1 1 1.62183 4.66251 0.118852 
48 1 1 1.70693 4.0411 0.903977 
146 1 1 2.5681 4.07019 1.7328 
52 1 1 3.27305 4.21012 0.949749 
51 1 1 4.07296 3.22146 0.883069 
71 1 1 4.08708 5.03553 0.873696 
150 1 1 4.17063 4.20705 1.68237 
56 1 1 4.8906 3.97956 0.897528 
54 1 1 5.62752 3.92626 0.0590434 
60 1 1 6.39673 4.1352 0.897468 
75 1 1 5.5559 4.78862 0.818541 
73 1 1 4.83586 4.77386 0.033724 
44 1 1 0.0823114 4.02614 0.716041 
77 1 1 6.50597 4.82843 7.99565 
58 1 1 7.30231 4.08085 8.08619 
161 1 1 7.32475 4.74353 0.879457 
158 1 1 7.24692 4.01098 1.60833 
41 1 1 0.137982 3.22151 8.01386 
68 1 1 1.49415 5.52768 0.854406 
64 1 1 8.0613 5.69608 0.821596 
62 1 1 0.891596 5.72334 -0.0185092 
61 1 1 0.0353752 5.04116 8.00567 
81 1 1 7.85702 6.31292 8.03058 
169 1 1 3.34149 4.90163 1.67859 
67 1 1 2.35492 4.89882 0.921547 
87 1 1 2.48665 6.48922 0.834649 
189 1 1 3.19497 6.49935 1.51581 
89 1 1 3.26626 6.31693 0.172432 
72 1 1 3.22174 5.57391 0.974678 
91 1 1 3.93049 6.64671 0.825009 
170 1 1 4.108 5.74906 1.66153 
70 1 1 4.06171 5.62422 7.95001 
76 1 1 4.77141 5.96045 0.644287 
80 1 1 6.29497 5.6089 0.622192 
95 1 1 5.71253 6.54765 0.623754 
97 1 1 6.6943 6.48161 8.07165 
193 1 1 4.85511 6.46996 1.57115 
74 1 1 5.52006 5.67312 8.03953 
79 1 1 7.15519 5.63085 0.0107068 
99 1 1 7.12877 6.32423 0.846535 
3 1 1 0.850145 7.78323 1.00099 
83 1 1 0.709796 6.41517 0.879497 
84 1 1 8.0387 7.16523 1.03175 
181 1 1 7.94609 6.25833 1.72036 
88 1 1 1.73587 7.30819 0.894245 
5 1 1 1.74766 8.05605 0.124198 
86 1 1 2.48127 7.17949 7.96876 
11 1 1 3.9971 0.0781456 0.69234 
92 1 1 3.1524 7.40448 0.744776 
190 1 1 4.20761 7.26388 1.60145 
90 1 1 4.01005 7.2334 8.0347 
96 1 1 4.92869 7.29972 0.863247 
15 1 1 5.68207 0.0379875 0.777923 
13 1 1 4.75653 8.06152 7.96184 
94 1 1 5.50753 7.29483 8.02353 
19 1 1 7.25119 0.098155 0.852998 
100 1 1 6.36006 7.37497 0.865178 
98 1 1 7.35608 7.44445 0.109842 
125 1 1 1.64916 1.69464 1.73543 
101 1 1 0.0697285 8.05779 1.69227 
104 1 1 0.0350724 0.710407 2.41364 
221 1 1 0.169197 1.78547 3.296 
201 1 1 8.01925 7.99351 3.22282 
108 1 1 1.59775 0.775578 2.41109 
112 1 1 3.24435 0.795487 2.45717 
133 1 1 4.77388 1.66812 1.56289 
116 1 1 4.79181 0.839749 2.4723 
131 1 1 3.93145 1.70279 2.39659 
210 1 1 4.063 0.843043 3.43342 
233 1 1 4.74704 1.62865 3.07662 
213 1 1 4.86717 7.973 3.26731 
117 1 1 6.41946 0.115527 1.57399 
114 1 1 5.57173 0.863216 1.52049 
120 1 1 6.36545 0.785307 2.34825 
214 1 1 5.60912 0.882271 3.09438 
217 1 1 6.1786 0.0219403 3.35982 
119 1 1 7.19587 0.029637 2.44872 
218 1 1 7.21885 0.923208 3.22338 
121 1 1 0.0295437 1.66819 1.75389 
141 1 1 7.98358 3.31272 1.6593 
122 1 1 0.797407 2.58925 1.7041 
123 1 1 0.820533 1.77594 2.39827 
128 1 1 1.71667 2.6287 2.40443 
127 1 1 2.55964 1.64467 2.32699 
126 1 1 2.42082 2.36076 1.52213 
132 1 1 3.30971 2.44448 2.4142 
130 1 1 4.03776 2.39688 1.53267 
136 1 1 4.82863 2.49197 2.44431 
137 1 1 6.46767 1.52806 1.6056 
157 1 1 6.49251 3.31332 1.63087 
135 1 1 5.81905 1.738 2.38561 
234 1 1 5.40818 2.3936 3.31513 
140 1 1 6.4686 2.5079 2.46297 
155 1 1 5.60544 3.31614 2.53918 
124 1 1 8.02876 2.44763 2.49122 
138 1 1 7.1242 2.48402 1.64973 
139 1 1 7.10646 1.70974 2.42901 
142 1 1 0.929762 3.90284 1.50743 
143 1 1 0.771393 3.36106 2.36676 
242 1 1 0.850533 4.57481 2.39431 
147 1 1 2.59022 3.1546 2.37089 
148 1 1 1.65802 3.8745 2.48346 
152 1 1 3.221 4.17867 2.51613 
153 1 1 4.76761 3.26381 1.701 
173 1 1 5.05662 4.827 1.75732 
151 1 1 3.95793 3.26864 2.36907 
156 1 1 4.76955 4.0074 2.45203 
177 1 1 6.57939 5.03003 1.52702 
154 1 1 5.62621 3.89904 1.54676 
175 1 1 5.66259 4.60619 2.54155 
254 1 1 5.85584 4.08166 3.42552 
160 1 1 6.49114 4.07829 2.43427 
159 1 1 7.2746 3.16815 2.43374 
144 1 1 7.99149 4.02369 2.39128 
261 1 1 0.14034 4.69564 3.22705 
179 1 1 7.24979 4.76797 2.57242 
163 1 1 0.0953097 4.69273 1.50646 
162 1 1 0.84426 5.57069 1.66254 
164 1 1 8.0408 5.60961 2.64015 
168 1 1 1.62298 5.71063 2.2964 
165 1 1 1.76403 4.71079 1.78937 
262 1 1 0.845481 5.57371 3.26292 
265 1 1 1.65095 4.68598 3.23198 
167 1 1 2.40521 4.94228 2.55323 
166 1 1 2.31631 5.67813 1.57368 
172 1 1 3.08092 5.71313 2.32507 
187 1 1 2.29633 6.61538 2.45069 
171 1 1 3.96337 4.91965 2.51722 
191 1 1 3.98846 6.34587 2.49695 
176 1 1 4.8618 5.69714 2.45866 
270 1 1 4.09092 5.67163 3.26146 
174 1 1 5.73714 5.60127 1.61253 
197 1 1 6.57928 6.43792 1.70188 
178 1 1 7.51675 5.33034 1.80503 
180 1 1 6.34965 5.3927 2.45956 
278 1 1 7.29524 5.7075 3.35935 
103 1 1 0.721739 7.96931 2.60058 
182 1 1 0.635367 7.13206 1.8195 
183 1 1 0.734855 6.42599 2.51261 
185 1 1 1.43432 6.43865 1.59548 
188 1 1 1.48697 7.30498 2.38651 
105 1 1 1.64924 8.05985 1.65442 
184 1 1 7.91906 7.15842 2.41249 
186 1 1 2.42317 7.26535 1.6657 
107 1 1 2.5582 0.0198881 2.28559 
289 1 1 3.1573 6.51695 3.1956 
192 1 1 3.40983 7.28335 2.26595 
109 1 1 3.28595 0.0165419 1.59677 
111 1 1 4.11247 0.0857194 2.31995 
290 1 1 3.96892 7.12883 3.18573 
113 1 1 4.88304 0.16788 1.6233 
196 1 1 4.98609 7.23809 2.52398 
194 1 1 5.53533 7.34511 1.66046 
115 1 1 5.58491 0.12954 2.36501 
195 1 1 5.51822 6.48606 2.47314 
200 1 1 6.36957 7.32346 2.44175 
294 1 1 5.6931 7.20278 3.34172 
198 1 1 7.0832 7.38313 1.60161 
199 1 1 7.27742 6.45055 2.62464 
202 1 1 0.838323 0.837817 3.06244 
204 1 1 0.0973765 0.714043 4.07923 
302 1 1 0.894408 0.739838 4.76638 
206 1 1 2.44239 0.725023 3.28179 
208 1 1 1.68011 0.957752 3.89239 
225 1 1 1.70563 1.81088 3.1282 
309 1 1 3.12276 0.199924 4.912 
212 1 1 3.26935 0.841135 3.98355 
231 1 1 4.06815 1.76241 4.0251 
211 1 1 3.96922 7.9234 4.03321 
310 1 1 3.99151 0.947785 4.75478 
333 1 1 4.87073 1.58504 4.93267 
216 1 1 4.9022 0.737772 4.12472 
215 1 1 5.48551 7.83603 4.16225 
314 1 1 5.68638 0.823059 5.07362 
237 1 1 6.46773 1.63008 3.35868 
220 1 1 6.36432 0.853686 4.19877 
219 1 1 7.20197 0.114645 3.87619 
239 1 1 7.46716 1.68591 4.02598 
318 1 1 7.27004 0.758448 4.69347 
222 1 1 0.854793 2.52789 3.24729 
223 1 1 0.829256 1.59713 4.08407 
224 1 1 0.275598 2.42589 4.14871 
227 1 1 2.42866 1.62738 4.04916 
226 1 1 2.5686 2.4345 3.09472 
228 1 1 1.74649 2.39919 3.93227 
232 1 1 3.28201 2.46483 3.97448 
229 1 1 3.27115 1.64751 3.2615 
230 1 1 4.0501 2.43295 3.26216 
330 1 1 4.08769 2.35085 4.84211 
337 1 1 6.63045 1.64971 4.77593 
236 1 1 4.80765 2.57521 4.09089 
235 1 1 5.52146 1.56886 3.99205 
240 1 1 6.38129 2.44972 3.96336 
334 1 1 5.62941 2.35769 4.87913 
255 1 1 5.59418 3.14828 4.0779 
238 1 1 7.41794 2.40217 3.22428 
338 1 1 7.42289 2.46291 4.82843 
241 1 1 8.02417 3.20373 3.38195 
321 1 1 0.0763118 1.62997 4.81193 
244 1 1 0.889284 3.89213 3.27895 
243 1 1 0.920973 3.12125 4.06587 
263 1 1 1.00147 4.71436 4.09139 
245 1 1 1.80158 3.10222 3.23048 
247 1 1 2.45616 3.16768 3.99912 
248 1 1 1.73338 3.84957 4.02249 
246 1 1 2.50501 3.91682 3.26482 
252 1 1 3.18524 4.04962 3.98099 
249 1 1 3.31303 3.21934 3.21077 
251 1 1 3.93039 3.32991 3.98376 
250 1 1 4.02816 4.00066 3.23395 
253 1 1 4.84132 3.25502 3.24541 
269 1 1 3.17488 4.88082 3.25504 
256 1 1 4.83189 3.89446 4.00461 
273 1 1 4.90913 4.6418 3.23463 
257 1 1 6.47138 3.20259 3.2177 
258 1 1 7.38399 4.0363 3.2939 
358 1 1 0.128686 4.01767 4.22312 
259 1 1 7.19111 3.14538 4.0922 
260 1 1 6.48516 3.90356 4.19888 
357 1 1 6.40472 3.04751 4.80834 
361 1 1 8.00214 4.77533 4.97301 
365 1 1 1.66366 4.81966 4.88625 
268 1 1 1.68543 5.71107 3.95306 
264 1 1 0.0662795 5.40365 4.10875 
266 1 1 2.40594 5.81713 3.138 
267 1 1 2.36804 4.79446 4.00704 
287 1 1 2.40068 6.50166 3.89311 
385 1 1 1.54905 6.50562 4.97652 
271 1 1 4.04452 4.79152 3.95879 
272 1 1 3.12263 5.70141 3.9427 
370 1 1 4.03787 5.48579 4.8109 
293 1 1 4.8194 6.44213 3.2455 
274 1 1 5.5908 5.53438 3.21458 
277 1 1 6.50539 5.01845 3.41691 
275 1 1 5.64147 4.80112 4.12803 
276 1 1 4.82436 5.6532 3.96885 
295 1 1 5.62959 6.45779 4.1882 
373 1 1 4.8286 4.88219 4.7626 
297 1 1 6.37103 6.40503 3.06895 
281 1 1 8.09703 6.38828 3.27498 
280 1 1 6.34656 5.82545 3.95422 
279 1 1 7.20481 4.92388 4.26097 
299 1 1 7.22058 6.3685 4.13735 
205 1 1 1.53793 0.141027 3.26586 
283 1 1 0.753171 6.3141 4.04457 
203 1 1 0.823778 7.94658 4.08025 
282 1 1 0.750145 7.15524 3.33415 
381 1 1 0.0474359 6.62821 4.87375 
285 1 1 1.44455 6.43529 3.27239 
207 1 1 2.5175 7.98608 3.96748 
286 1 1 2.48801 7.36392 3.18286 
288 1 1 1.66788 7.42804 3.84587 
389 1 1 3.24454 6.35263 4.67906 
292 1 1 3.18149 7.16022 3.91734 
209 1 1 3.28268 0.066896 3.26315 
386 1 1 2.46548 7.31289 4.73028 
291 1 1 4.11348 6.3213 4.09458 
296 1 1 4.6714 7.20234 4.02606 
393 1 1 4.70718 6.34001 4.82513 
390 1 1 4.21845 7.29038 4.97767 
313 1 1 4.93529 0.0849652 5.02846 
317 1 1 6.13322 8.05156 4.88959 
397 1 1 6.38493 6.60974 4.83919 
300 1 1 6.54804 7.21534 3.98994 
284 1 1 0.0157221 7.30135 4.108 
298 1 1 7.23662 7.23901 3.29586 
398 1 1 7.21359 7.45598 4.73143 
301 1 1 0.102035 7.95211 4.88812 
323 1 1 0.773585 1.45993 5.5427 
425 1 1 1.73023 1.74267 6.64189 
303 1 1 1.00284 8.04596 5.58589 
305 1 1 1.68721 8.04059 4.63909 
402 1 1 1.09714 0.751096 6.49881 
325 1 1 1.63676 1.60619 4.82396 
306 1 1 2.32554 0.85682 4.7409 
308 1 1 1.6011 0.870711 5.61283 
312 1 1 3.07003 0.969173 5.60045 
329 1 1 3.22661 1.67428 4.9137 
406 1 1 2.53182 0.812381 6.55846 
316 1 1 4.69216 0.974728 5.63984 
331 1 1 3.92394 1.64587 5.7003 
433 1 1 4.68562 1.63855 6.45124 
410 1 1 3.89951 0.881366 6.42092 
414 1 1 5.67279 0.821182 6.3515 
320 1 1 6.5147 0.792587 5.78427 
315 1 1 5.60997 7.99985 5.84563 
304 1 1 0.101052 0.747743 5.41231 
418 1 1 7.35949 0.590727 6.59672 
322 1 1 0.96742 2.31385 4.97151 
324 1 1 0.116529 2.06373 5.85949 
328 1 1 1.69424 2.49287 5.70686 
445 1 1 1.58493 3.18761 6.45124 
326 1 1 2.36861 2.44415 4.9341 
327 1 1 2.34043 1.66731 5.75133 
347 1 1 2.59221 3.27309 5.86891 
353 1 1 4.88974 3.18338 4.90687 
332 1 1 3.24694 2.44737 5.58162 
429 1 1 3.21662 1.68931 6.50895 
336 1 1 4.90937 2.4268 5.60155 
449 1 1 3.24073 3.12332 6.65339 
430 1 1 4.13415 2.49071 6.26999 
335 1 1 5.53041 1.62259 5.70478 
340 1 1 6.33515 2.34448 5.70021 
355 1 1 5.72165 3.32383 5.64173 
339 1 1 7.3835 1.50044 5.60229 
359 1 1 7.33818 3.16862 5.57049 
457 1 1 6.39234 3.18684 6.5835 
341 1 1 0.287915 3.09384 5.01301 
342 1 1 1.01261 4.04329 4.83941 
343 1 1 0.843403 2.94997 5.82322 
441 1 1 0.0292586 3.11474 6.49824 
461 1 1 7.97467 4.82101 6.2316 
348 1 1 1.63341 4.14468 5.81183 
363 1 1 0.726357 4.82946 5.64176 
345 1 1 1.63578 3.1643 4.75346 
369 1 1 3.12423 4.84084 4.6311 
346 1 1 2.40978 4.02977 4.9535 
352 1 1 3.41105 4.13756 5.56762 
367 1 1 2.57137 4.90517 5.65742 
469 1 1 3.33022 4.75456 6.43121 
349 1 1 3.15577 3.30469 4.84581 
350 1 1 4.12795 4.14477 4.73193 
351 1 1 4.10777 3.17959 5.59366 
450 1 1 4.16208 3.8475 6.33181 
356 1 1 4.9676 3.97553 5.60994 
453 1 1 4.9061 3.11677 6.47485 
354 1 1 5.54191 4.02281 4.78391 
360 1 1 6.46628 3.96603 5.75464 
344 1 1 8.00643 3.83458 5.75781 
379 1 1 7.16608 4.22134 4.98717 
458 1 1 7.16298 3.92426 6.55688 
362 1 1 0.701796 5.55722 4.88531 
366 1 1 2.40536 5.61997 4.73195 
368 1 1 1.63806 5.6148 5.54106 
387 1 1 2.41665 6.51871 5.63206 
372 1 1 3.33391 5.60045 5.60381 
371 1 1 4.08481 4.89801 5.71635 
376 1 1 4.83886 5.61908 5.55075 
493 1 1 4.7871 6.32787 6.44426 
489 1 1 3.21885 6.31896 6.46611 
470 1 1 4.00598 5.61109 6.56452 
375 1 1 5.57981 4.86689 5.73366 
374 1 1 5.77811 5.62918 4.93461 
380 1 1 6.36287 5.59495 5.83175 
377 1 1 6.36876 4.79679 4.90908 
378 1 1 7.07861 5.66398 4.95659 
364 1 1 8.03855 5.72119 5.67886 
478 1 1 7.11667 4.8769 5.70004 
477 1 1 6.31753 4.86363 6.50198 
383 1 1 0.776475 6.46953 5.61678 
382 1 1 0.891933 7.34325 4.87785 
405 1 1 1.71636 8.01914 6.6475 
307 1 1 2.28704 8.01581 5.6801 
388 1 1 1.5621 7.29448 5.70278 
392 1 1 3.12997 7.33348 5.64009 
391 1 1 4.05067 6.40975 5.67688 
311 1 1 4.08457 8.04673 5.54497 
395 1 1 5.44637 6.41314 5.58698 
396 1 1 4.80976 7.23417 5.87358 
394 1 1 5.45795 7.14316 4.91932 
384 1 1 0.175973 7.2794 5.76492 
399 1 1 7.325 6.54293 5.55208 
319 1 1 7.30492 7.84977 5.73454 
400 1 1 6.45987 7.31764 5.50308 
481 1 1 7.96406 6.60119 6.60135 
403 1 1 0.988897 7.9672 7.52203 
408 1 1 1.64076 0.772568 7.30594 
423 1 1 0.819658 1.63593 7.32309 
9 1 1 3.20949 0.015123 8.07964 
6 1 1 2.37392 0.877375 0.00412184 
412 1 1 3.2462 0.786952 7.28983 
427 1 1 2.5532 1.64608 7.28083 
416 1 1 4.86782 0.761947 7.22035 
431 1 1 3.95362 1.52112 7.29269 
411 1 1 3.89934 7.99314 7.25851 
33 1 1 4.71901 1.65165 7.8479 
417 1 1 6.51996 8.08119 6.44595 
413 1 1 4.5598 0.143117 6.43229 
415 1 1 5.72018 0.0825318 7.3418 
420 1 1 6.44562 0.801829 7.32052 
435 1 1 5.53163 1.51243 7.13882 
404 1 1 0.301589 0.757641 7.33255 
401 1 1 0.190395 0.237466 6.30093 
419 1 1 7.22874 8.0225 7.41318 
422 1 1 0.944797 2.24968 6.46936 
428 1 1 1.56553 2.56645 7.42707 
424 1 1 8.00149 2.30695 7.28717 
443 1 1 0.794561 3.10486 7.14101 
421 1 1 0.152963 1.19125 6.45435 
426 1 1 2.37304 2.57694 6.64011 
447 1 1 2.26238 3.34863 7.31182 
49 1 1 3.2186 3.36487 -0.018752 
432 1 1 3.29604 2.37175 7.44126 
30 1 1 4.12456 2.46429 0.0378281 
436 1 1 4.83976 2.49737 7.31164 
451 1 1 4.01428 3.11244 7.36223 
37 1 1 6.75266 1.57086 8.02792 
34 1 1 5.65471 2.28833 8.02938 
434 1 1 5.66785 2.43325 6.62551 
53 1 1 4.78766 3.3038 0.0713908 
440 1 1 6.4455 2.32199 7.339 
38 1 1 7.26528 2.51924 0.0894467 
438 1 1 7.23923 2.39982 6.64513 
439 1 1 7.3346 1.51067 7.21343 
437 1 1 6.37737 1.65939 6.49261 
459 1 1 7.18076 3.20339 7.39215 
442 1 1 0.733722 4.03303 6.39844 
42 1 1 0.916663 3.8815 8.06409 
444 1 1 7.97844 4.02944 7.15281 
463 1 1 0.814835 5.03716 7.21511 
46 1 1 2.52962 4.15645 0.158273 
448 1 1 1.38861 4.06422 7.14917 
446 1 1 2.53918 4.10113 6.44619 
452 1 1 3.10789 4.29106 7.40915 
467 1 1 2.22975 4.80872 7.32108 
69 1 1 3.19187 4.94309 0.0831208 
50 1 1 3.99722 4.21269 0.10316 
454 1 1 5.56064 4.1355 6.45379 
455 1 1 5.57964 3.31975 7.32604 
456 1 1 4.80468 3.89418 7.2365 
460 1 1 6.40579 4.12229 7.37619 
479 1 1 7.23336 4.75367 7.13652 
462 1 1 0.772235 5.74379 6.49984 
465 1 1 1.6117 4.96584 6.43959 
468 1 1 1.55145 5.85224 7.31741 
66 1 1 2.3588 5.67967 0.0859563 
85 1 1 1.64399 6.40505 0.31598 
466 1 1 2.39566 5.7015 6.38955 
472 1 1 3.16809 5.6323 7.40736 
487 1 1 2.52009 6.43409 7.19065 
485 1 1 1.57805 6.50921 6.40084 
471 1 1 4.05349 4.69 7.32252 
491 1 1 3.98739 6.51166 7.13792 
476 1 1 4.77159 5.67225 7.28096 
93 1 1 4.75496 6.49722 7.87723 
473 1 1 4.77648 4.80622 6.56662 
475 1 1 5.61958 4.85532 7.27239 
474 1 1 5.63867 5.80618 6.50982 
495 1 1 5.7006 6.42749 7.30455 
499 1 1 7.20749 5.68295 6.37339 
464 1 1 7.97391 5.69924 7.09062 
480 1 1 6.42544 5.57728 7.31437 
82 1 1 0.877257 7.11975 0.151446 
483 1 1 0.688392 6.42355 7.40114 
482 1 1 0.83278 7.4587 6.47334 
407 1 1 2.40133 0.0670449 7.34072 
488 1 1 1.56263 7.06317 7.34433 
486 1 1 2.30312 7.23668 6.53153 
409 1 1 3.17932 0.0430415 6.23333 
490 1 1 3.86022 7.2728 6.31576 
492 1 1 3.10224 7.36355 7.14188 
494 1 1 5.65828 7.24553 6.66807 
496 1 1 4.69007 7.24356 6.99242 
497 1 1 6.38954 6.58277 6.20423 
500 1 1 6.42726 7.29104 7.3588 
498 1 1 7.27059 7.27306 6.563 
78 1 1 7.04011 6.39501 7.17151 
484 1 1 0.13904 7.41 7.34346 
