ITEM: TIMESTEP
32000
ITEM: NUMBER OF ATOMS
500
ITEM: BOX BOUNDS pp pp pp
0 8.07388
0 8.07388
0 8.07388
ITEM: ATOMS id type mass x y z 
2 1 1 0.887727 0.924356 0.234648 
4 1 1 0.0214665 0.6674 1.01567 
5 1 1 1.51917 7.97218 -0.00592579 
8 1 1 1.67955 0.691151 0.781899 
7 1 1 2.31303 7.95772 0.685571 
9 1 1 3.28183 0.168418 7.99227 
6 1 1 2.45461 0.726563 0.0935127 
12 1 1 3.34543 0.726069 0.725006 
29 1 1 3.30475 1.72423 0.100728 
31 1 1 4.17262 1.80327 0.772679 
110 1 1 4.07919 0.800456 1.51638 
10 1 1 4.04228 1.02231 0.108091 
16 1 1 4.87885 0.94435 0.842757 
35 1 1 5.65193 1.90602 0.83695 
14 1 1 5.63575 0.911658 0.0762492 
33 1 1 4.78021 1.71886 8.03276 
20 1 1 6.44668 0.812434 0.837312 
18 1 1 7.3068 0.713451 0.0430363 
137 1 1 6.64294 1.56097 1.68128 
23 1 1 1.00196 1.52426 0.965314 
21 1 1 8.03923 1.45785 0.0328434 
28 1 1 1.4452 2.45283 0.973644 
43 1 1 0.655236 3.18046 0.977619 
22 1 1 0.905226 2.3408 7.97479 
27 1 1 2.33263 1.57598 0.759307 
32 1 1 2.98407 2.56968 0.852285 
47 1 1 2.18179 3.28723 0.863069 
36 1 1 4.86972 2.63359 0.825019 
130 1 1 3.91161 2.44587 1.55508 
153 1 1 4.7953 3.21701 1.67489 
34 1 1 5.44502 2.58945 8.03794 
24 1 1 0.10978 2.21382 0.711158 
40 1 1 6.50915 2.56349 0.788426 
39 1 1 7.37697 1.61482 0.8948 
121 1 1 0.0589334 1.56111 1.54877 
142 1 1 0.762362 3.90033 1.75971 
45 1 1 1.49898 3.27225 7.87946 
141 1 1 0.0595304 3.22222 1.80503 
42 1 1 0.660359 4.12893 7.98457 
145 1 1 1.53654 3.24211 1.72942 
65 1 1 1.68139 4.88772 0.0194341 
48 1 1 1.3554 4.03548 0.750593 
46 1 1 2.25713 4.02846 0.0665913 
67 1 1 2.52987 4.78359 0.707663 
146 1 1 2.45674 4.00007 1.65816 
52 1 1 3.16049 3.99169 0.864907 
51 1 1 4.00573 3.14815 0.839063 
56 1 1 4.81727 4.00109 0.774141 
150 1 1 3.99349 4.13768 1.76312 
55 1 1 5.65677 3.25022 0.895035 
53 1 1 4.79379 3.4074 7.89898 
75 1 1 5.5937 4.87209 0.850462 
154 1 1 5.67212 4.09913 1.68728 
173 1 1 4.80344 4.74907 1.66265 
57 1 1 6.45134 3.36315 0.0842627 
59 1 1 7.38871 3.22784 1.00662 
44 1 1 0.0233997 4.16286 0.959477 
60 1 1 6.50635 4.09335 0.713708 
161 1 1 7.14965 4.87313 0.654945 
158 1 1 7.23624 4.20773 1.51662 
177 1 1 6.43506 4.91203 1.59287 
63 1 1 0.778909 4.87801 0.885767 
185 1 1 1.61331 6.39822 1.54616 
162 1 1 0.683433 5.6362 1.55691 
62 1 1 0.892639 5.59812 0.0437112 
68 1 1 1.63032 5.63793 0.93436 
166 1 1 2.46627 5.58363 1.53322 
165 1 1 1.60454 4.82797 1.58958 
72 1 1 3.46957 5.72504 0.887754 
71 1 1 3.93973 4.831 0.944891 
70 1 1 4.18512 5.67889 0.0276669 
93 1 1 4.84216 6.63764 0.0225619 
76 1 1 4.79803 5.63437 0.95619 
174 1 1 5.56142 5.80568 1.81284 
193 1 1 4.8252 6.65855 1.64529 
95 1 1 5.41117 6.54064 0.874156 
74 1 1 5.3385 5.68157 8.05915 
163 1 1 8.08177 4.82347 1.76619 
80 1 1 6.35415 5.7434 0.957726 
64 1 1 8.05202 5.6051 0.772262 
79 1 1 7.27911 5.7822 8.04006 
99 1 1 7.22279 6.32881 0.84552 
181 1 1 8.00924 6.55222 1.54742 
178 1 1 7.21822 5.57222 1.61489 
83 1 1 0.818866 6.37077 0.773896 
85 1 1 1.60821 6.40804 0.0244596 
3 1 1 0.727627 7.95933 0.793807 
88 1 1 1.74148 7.12018 0.766288 
81 1 1 0.0240097 6.44244 0.0176472 
89 1 1 3.34659 6.38036 7.92958 
87 1 1 2.51293 6.42093 0.907065 
92 1 1 3.31918 7.22981 0.794567 
86 1 1 2.73743 7.30383 8.04399 
11 1 1 3.9666 8.01749 0.781849 
91 1 1 4.17044 6.58005 0.742283 
190 1 1 3.83977 7.27492 1.70198 
96 1 1 4.86224 7.37534 0.912549 
15 1 1 5.56415 0.121719 0.868122 
17 1 1 6.33787 8.03264 0.120586 
13 1 1 4.84988 0.138045 0.131457 
19 1 1 7.34712 8.03654 0.81442 
1 1 1 0.158361 0.00929829 8.0427 
84 1 1 8.0672 7.17548 0.696987 
100 1 1 6.36177 7.18252 0.889592 
98 1 1 7.16164 7.22434 8.04692 
198 1 1 7.22981 7.37189 1.59593 
102 1 1 0.780276 0.684264 1.68319 
202 1 1 0.824943 1.08263 3.26026 
125 1 1 1.70806 1.55205 1.76792 
103 1 1 0.866665 8.03154 2.41867 
105 1 1 1.57835 7.95329 1.52123 
108 1 1 1.62221 0.971799 2.54238 
106 1 1 2.42556 0.795627 1.46385 
229 1 1 3.14426 1.60812 3.20198 
109 1 1 3.19027 8.06389 1.51409 
129 1 1 3.1411 1.67383 1.41088 
112 1 1 3.21128 0.868428 2.20783 
111 1 1 3.98804 0.0645297 2.56868 
131 1 1 3.82249 1.64526 2.36564 
114 1 1 5.74515 0.887622 1.6589 
116 1 1 4.97172 0.802219 2.36403 
104 1 1 0.0533079 0.833273 2.35899 
120 1 1 6.63201 0.755848 2.41307 
118 1 1 7.34449 0.763291 1.65044 
119 1 1 7.27839 8.04194 2.54978 
122 1 1 0.624129 2.42443 1.67808 
123 1 1 0.706682 1.64007 2.33408 
128 1 1 1.57109 2.67523 2.54055 
124 1 1 7.83821 2.51761 2.47027 
222 1 1 0.813949 2.3537 3.1557 
126 1 1 2.1977 2.45937 1.65349 
127 1 1 2.4325 1.82892 2.42511 
225 1 1 1.67293 1.78533 3.30091 
132 1 1 3.19546 2.44861 2.46479 
230 1 1 4.07337 2.30839 3.15782 
133 1 1 4.73053 1.64591 1.7508 
136 1 1 4.82859 2.41654 2.3606 
134 1 1 5.82921 2.56261 1.65248 
135 1 1 5.75534 1.74541 2.3393 
140 1 1 6.61562 2.41748 2.38039 
234 1 1 5.6756 2.49729 3.05406 
138 1 1 7.36638 2.40601 1.54499 
139 1 1 7.39136 1.53579 2.38515 
221 1 1 7.79775 1.67334 3.30676 
245 1 1 1.6456 3.33404 3.43305 
143 1 1 0.676401 3.20963 2.58848 
242 1 1 0.779632 4.87655 2.41208 
144 1 1 8.06444 4.04428 2.43717 
149 1 1 3.20373 3.14253 1.68771 
147 1 1 2.39881 3.22849 2.48444 
148 1 1 1.59525 4.06493 2.24104 
167 1 1 2.30216 4.7251 2.40585 
169 1 1 3.05933 4.76112 1.64045 
152 1 1 3.1922 4.02324 2.51472 
151 1 1 4.08401 3.31777 2.54044 
156 1 1 4.88438 4.16855 2.46986 
171 1 1 4.02629 4.99768 2.29179 
253 1 1 4.90848 3.25066 3.30888 
155 1 1 5.6819 3.33305 2.39957 
273 1 1 4.88512 4.83659 3.42017 
157 1 1 6.51355 3.28792 1.59312 
159 1 1 7.22671 3.40416 2.32483 
257 1 1 6.45085 3.3223 3.27055 
160 1 1 6.41648 4.1792 2.47456 
258 1 1 7.20853 4.02375 3.18109 
277 1 1 6.53068 4.82895 3.27434 
183 1 1 0.949108 6.39989 2.39483 
261 1 1 8.07198 4.68253 3.39428 
285 1 1 1.60809 6.3618 3.12226 
168 1 1 1.57387 5.64423 2.3233 
172 1 1 3.20666 5.61324 2.31928 
266 1 1 2.49273 5.53312 3.08065 
289 1 1 3.26139 6.45674 3.25779 
265 1 1 1.74207 4.7995 3.16783 
170 1 1 4.19338 5.78181 1.68259 
191 1 1 3.94691 6.57927 2.42505 
293 1 1 4.82893 6.56539 3.44938 
269 1 1 3.38847 4.81375 3.32244 
270 1 1 3.95821 5.74109 3.38568 
175 1 1 5.7497 4.92555 2.50671 
176 1 1 4.74606 5.88924 2.63966 
195 1 1 5.44451 6.64564 2.54725 
179 1 1 7.20923 4.83949 2.48877 
180 1 1 6.40834 5.7429 2.36349 
164 1 1 7.92033 5.69616 2.4266 
101 1 1 8.0304 7.9158 1.73772 
182 1 1 0.720292 7.19067 1.55837 
205 1 1 1.23077 0.0646285 3.40866 
282 1 1 1.00029 7.19363 3.07776 
189 1 1 3.29399 6.40843 1.68384 
188 1 1 1.74037 7.12446 2.31661 
187 1 1 2.36779 6.363 2.34325 
186 1 1 2.56105 7.33274 1.63319 
107 1 1 2.32903 0.038435 2.51286 
286 1 1 2.36134 7.24644 3.27455 
113 1 1 4.77088 8.07925 1.77573 
192 1 1 3.11965 7.45259 2.49718 
196 1 1 4.71038 7.31326 2.51993 
115 1 1 5.80283 0.0813099 2.39855 
197 1 1 6.3615 6.62292 1.74491 
194 1 1 5.64712 7.32064 1.62362 
117 1 1 6.36918 7.99735 1.57775 
199 1 1 7.16284 6.51141 2.31095 
200 1 1 6.42966 7.33953 2.54118 
184 1 1 0.0977124 7.28994 2.44644 
217 1 1 6.43909 0.0190102 3.30864 
201 1 1 0.123807 7.92856 3.25852 
204 1 1 0.113679 0.780395 4.08626 
302 1 1 0.839032 0.819906 4.82715 
208 1 1 1.6701 0.849427 4.16911 
206 1 1 2.39809 0.872289 3.18815 
207 1 1 2.44122 0.103389 4.05557 
210 1 1 4.16444 1.00889 3.24942 
212 1 1 3.25597 0.974167 4.00778 
329 1 1 3.18755 1.58749 4.83298 
214 1 1 5.75647 0.845184 3.07345 
233 1 1 4.87765 1.64012 3.28164 
216 1 1 4.76229 0.702148 4.09924 
220 1 1 6.63032 0.761647 4.01901 
313 1 1 4.77769 0.101822 4.87721 
218 1 1 7.353 0.793142 3.28438 
219 1 1 7.36674 8.05127 3.96798 
318 1 1 7.25903 0.663236 4.79721 
223 1 1 0.938978 1.60587 4.1198 
321 1 1 7.96511 1.4506 4.8642 
243 1 1 0.747214 3.03913 4.01961 
228 1 1 1.65705 2.55346 3.94813 
241 1 1 8.06222 3.25193 3.33292 
226 1 1 2.54801 2.47788 3.35534 
227 1 1 2.42766 1.71355 3.98569 
247 1 1 2.40998 3.31669 4.14827 
326 1 1 2.48883 2.36332 4.99185 
231 1 1 4.13955 1.5976 4.03829 
232 1 1 3.39671 2.3468 4.01896 
330 1 1 4.19403 2.4116 4.79326 
251 1 1 4.19454 3.1338 4.05136 
235 1 1 5.59474 1.48671 4.06133 
236 1 1 4.79454 2.33431 3.91675 
240 1 1 6.38902 2.27583 4.05984 
237 1 1 6.67585 1.64004 3.21656 
337 1 1 6.37096 1.5844 4.77587 
334 1 1 5.46734 2.38081 4.69563 
238 1 1 7.10598 2.53964 3.24299 
224 1 1 7.89386 2.26854 4.18525 
239 1 1 7.15617 1.58255 4.13201 
259 1 1 7.18878 3.26973 3.94362 
244 1 1 0.857978 3.95116 3.1583 
342 1 1 0.708478 3.87599 4.77665 
248 1 1 1.68873 4.2364 4.06789 
246 1 1 2.50067 3.98059 3.35968 
252 1 1 3.3765 3.92131 4.11162 
267 1 1 2.51343 4.92606 4.08832 
249 1 1 3.32751 3.21853 3.40553 
250 1 1 4.10959 4.00947 3.30405 
256 1 1 4.88762 3.98971 4.06035 
373 1 1 4.79302 4.79417 4.80737 
255 1 1 5.67898 3.10547 3.88574 
357 1 1 6.42908 3.13237 4.76603 
254 1 1 5.67213 4.05511 3.26079 
275 1 1 5.72942 4.94036 4.07222 
354 1 1 5.70375 3.96253 4.72616 
377 1 1 6.42729 4.77242 4.93137 
358 1 1 7.99883 3.93271 4.07347 
260 1 1 6.47922 3.97778 3.9981 
279 1 1 7.40418 4.80386 4.15044 
263 1 1 0.809667 4.86448 3.98639 
262 1 1 0.740011 5.70659 3.13835 
264 1 1 0.183332 5.69424 4.056 
361 1 1 0.0337209 4.63128 4.9068 
268 1 1 1.76364 5.6717 3.91826 
272 1 1 3.26587 5.62375 4.14139 
271 1 1 3.98227 4.91537 4.16536 
389 1 1 3.28947 6.23389 4.92796 
370 1 1 4.05873 5.55636 4.9076 
291 1 1 3.83575 6.62488 4.13989 
393 1 1 4.73008 6.39301 4.66527 
276 1 1 4.7031 5.61219 3.97874 
274 1 1 5.74484 5.59636 3.31889 
295 1 1 5.77989 6.30744 4.0056 
397 1 1 6.40973 6.56679 4.92539 
374 1 1 5.86697 5.60503 4.81461 
280 1 1 6.64661 5.51566 4.22332 
278 1 1 7.21367 5.66438 3.24815 
299 1 1 7.39939 6.31986 4.15308 
281 1 1 0.0875819 6.56796 3.20328 
283 1 1 0.839908 6.49538 4.05475 
203 1 1 0.768183 8.0227 4.2582 
287 1 1 2.73011 6.60183 4.21941 
288 1 1 1.77081 7.19472 4.1522 
292 1 1 3.19884 7.46946 4.07016 
290 1 1 4.00072 7.29889 3.2486 
209 1 1 3.2777 0.255591 3.19402 
211 1 1 4.02311 0.0418647 3.8307 
296 1 1 4.66488 7.30952 4.15293 
213 1 1 4.78979 8.00325 3.22483 
294 1 1 5.60701 7.40749 3.21712 
215 1 1 5.58634 0.0174492 3.92537 
300 1 1 6.44046 7.33848 4.01515 
394 1 1 5.48382 7.30827 4.75547 
297 1 1 6.4136 6.51561 3.27407 
284 1 1 0.104174 7.27451 4.16684 
298 1 1 7.24117 7.06054 3.26239 
325 1 1 1.6728 1.75007 4.90521 
305 1 1 1.73325 8.0177 4.80024 
308 1 1 1.69537 0.889551 5.63245 
301 1 1 8.00275 0.0444985 4.82391 
306 1 1 2.39181 0.882437 4.85631 
327 1 1 2.44269 1.48782 5.83764 
307 1 1 2.51913 0.0646551 5.63143 
310 1 1 4.01618 0.939679 4.83585 
309 1 1 3.33066 0.11543 4.76409 
312 1 1 3.36316 0.904519 5.73166 
333 1 1 4.92177 1.55837 4.88176 
331 1 1 4.07762 1.69178 5.80141 
316 1 1 4.88948 0.834123 5.71432 
314 1 1 5.64359 0.746797 4.7126 
320 1 1 6.33621 0.693165 5.45828 
335 1 1 5.76204 1.61194 5.80261 
317 1 1 6.40145 8.06008 4.67633 
304 1 1 0.0635571 0.774207 5.6113 
339 1 1 6.97776 1.46871 5.5381 
319 1 1 7.18219 0.0372068 5.8349 
323 1 1 0.774666 1.51963 5.62174 
322 1 1 0.663975 2.28716 4.97927 
343 1 1 0.671932 3.29951 5.74954 
422 1 1 0.755417 2.2683 6.3234 
328 1 1 1.5958 2.50688 5.63546 
345 1 1 1.50485 3.2727 4.83945 
332 1 1 3.37469 2.4085 5.68813 
351 1 1 4.21043 3.30275 5.70822 
353 1 1 4.83698 3.18528 4.86922 
336 1 1 4.97935 2.35959 5.622 
355 1 1 5.71232 3.31405 5.58525 
324 1 1 7.99405 2.48648 5.72678 
341 1 1 8.01403 3.11689 4.82722 
340 1 1 6.3557 2.39464 5.56686 
338 1 1 7.19164 2.30525 4.95453 
363 1 1 0.629016 4.69623 5.82228 
442 1 1 0.83172 3.84232 6.57161 
348 1 1 1.42572 3.96261 5.65162 
344 1 1 7.83501 3.92033 5.70724 
365 1 1 1.49423 4.69879 4.96349 
347 1 1 2.5005 3.13293 5.70549 
346 1 1 2.3545 3.88939 4.9621 
367 1 1 2.44516 4.81556 5.58803 
465 1 1 1.54238 4.77533 6.44816 
446 1 1 2.35659 4.01601 6.22689 
349 1 1 3.28576 3.22768 4.8253 
350 1 1 4.05638 4.04413 4.74972 
352 1 1 3.2549 4.0424 5.54474 
469 1 1 3.24479 4.84786 6.29939 
450 1 1 3.95622 4.00447 6.36028 
371 1 1 3.96771 4.77911 5.62459 
356 1 1 4.88949 4.03594 5.54631 
360 1 1 6.61948 4.02335 5.82193 
359 1 1 7.05943 3.1467 5.65846 
379 1 1 7.2188 3.88735 4.82308 
478 1 1 7.3074 4.84055 5.69762 
441 1 1 7.92784 3.23229 6.53009 
458 1 1 7.23778 4.07673 6.55626 
362 1 1 1.02128 5.68146 4.59756 
383 1 1 0.898441 6.53344 5.64739 
366 1 1 2.36175 5.68197 5.10655 
368 1 1 1.38312 5.50752 5.50525 
466 1 1 2.42197 5.5049 6.43267 
385 1 1 1.68181 6.4631 4.91183 
387 1 1 2.34936 6.44539 5.77425 
369 1 1 3.18192 4.81538 4.92641 
372 1 1 3.26979 5.64872 5.70557 
376 1 1 4.99338 5.50821 5.47607 
470 1 1 4.17601 5.69754 6.35698 
375 1 1 5.64845 4.69337 5.67248 
380 1 1 6.63774 5.58969 5.56291 
473 1 1 4.89514 4.82413 6.47168 
474 1 1 5.64204 5.37679 6.58449 
378 1 1 7.51844 5.52206 4.83747 
364 1 1 0.129337 5.53363 5.64575 
499 1 1 7.31045 5.82575 6.45147 
477 1 1 6.49096 4.92462 6.53522 
381 1 1 8.01597 6.48569 4.92318 
303 1 1 0.805387 7.95336 5.62836 
382 1 1 0.923317 7.17724 4.83479 
388 1 1 1.65322 7.32945 5.76069 
384 1 1 7.98502 7.30641 5.49812 
386 1 1 2.43988 7.39587 4.98833 
392 1 1 3.14898 7.15993 5.63598 
486 1 1 2.58477 7.35972 6.61468 
413 1 1 4.9479 8.06929 6.46364 
493 1 1 5.04609 6.26482 6.44253 
391 1 1 4.33451 6.29071 5.58394 
390 1 1 4.0108 7.31744 4.99762 
311 1 1 4.11647 0.0745877 5.66142 
395 1 1 5.46519 6.45397 5.3452 
396 1 1 4.79558 7.34291 5.51599 
315 1 1 5.66856 8.02118 5.57343 
398 1 1 7.25876 7.25962 4.7562 
399 1 1 7.39121 6.39191 5.66535 
400 1 1 6.59415 7.38818 5.57414 
402 1 1 0.923086 0.756856 6.47593 
404 1 1 0.117687 0.724491 7.33439 
408 1 1 1.46307 0.776068 7.47058 
406 1 1 2.32863 0.753036 6.6794 
427 1 1 2.461 1.57646 7.5482 
405 1 1 1.64122 8.0545 6.47311 
409 1 1 3.20129 0.0710815 6.66617 
410 1 1 4.09329 0.74971 6.46909 
412 1 1 3.30855 0.954269 7.30656 
431 1 1 4.02745 1.80068 7.32082 
416 1 1 4.85038 0.779335 7.27899 
429 1 1 3.25697 1.69378 6.4812 
411 1 1 4.04528 0.0317735 7.28347 
433 1 1 4.96825 1.651 6.51244 
414 1 1 5.5947 0.812813 6.52262 
420 1 1 6.55643 0.651433 7.34005 
435 1 1 5.70595 1.70182 7.46285 
401 1 1 0.0555691 7.86311 6.53593 
418 1 1 7.37108 0.929521 6.54833 
423 1 1 0.842065 1.61166 7.18773 
425 1 1 1.59254 1.52285 6.43128 
428 1 1 1.7421 2.34036 7.35371 
25 1 1 1.54462 1.55067 0.0176886 
26 1 1 2.19098 2.42164 0.184139 
426 1 1 2.49992 2.40672 6.48781 
30 1 1 3.97692 2.55484 0.0471848 
430 1 1 4.10036 2.41325 6.51425 
432 1 1 3.1144 2.39021 7.35308 
451 1 1 3.91622 3.26108 7.23024 
49 1 1 3.04473 3.27293 0.0616736 
37 1 1 6.52794 1.60767 0.0920174 
436 1 1 4.96983 2.46235 7.19419 
457 1 1 6.6435 3.11437 6.51684 
453 1 1 4.87162 3.21035 6.51512 
434 1 1 5.8345 2.45874 6.55297 
440 1 1 6.40628 2.49853 7.44437 
437 1 1 6.42127 1.47368 6.50864 
38 1 1 7.33984 2.35832 0.0835731 
421 1 1 0.0924253 1.52519 6.45803 
439 1 1 7.22587 1.69255 7.25731 
424 1 1 8.01537 2.39063 7.18837 
438 1 1 7.2157 2.26678 6.37898 
443 1 1 0.727523 3.0699 7.18642 
448 1 1 1.63853 4.09394 7.11056 
463 1 1 0.777316 4.85756 7.34762 
445 1 1 1.55599 3.06542 6.5747 
447 1 1 2.57887 3.24942 7.19819 
467 1 1 2.49183 4.89452 7.2683 
50 1 1 3.90247 4.06848 8.0601 
69 1 1 3.40573 4.98935 7.98768 
449 1 1 3.32456 3.27886 6.40574 
452 1 1 3.20937 4.22598 7.06645 
73 1 1 4.70663 4.84296 0.144384 
54 1 1 5.65445 4.04296 0.098893 
454 1 1 5.75515 4.0993 6.47815 
456 1 1 4.82745 4.01637 7.1301 
455 1 1 5.78675 3.32834 7.31957 
475 1 1 5.48435 4.71302 7.45452 
77 1 1 6.2861 5.14752 0.0282132 
58 1 1 7.40833 3.88846 0.102721 
41 1 1 8.04712 3.02852 0.14605 
459 1 1 7.40424 3.12067 7.39345 
460 1 1 6.60927 4.15018 7.46617 
444 1 1 0.00160819 4.15463 7.18292 
61 1 1 8.04822 4.86893 0.0207732 
461 1 1 7.97285 4.96331 6.5027 
485 1 1 1.59445 6.41286 6.60484 
462 1 1 0.859629 5.63803 6.52904 
483 1 1 0.774137 6.33868 7.32196 
464 1 1 0.0376222 5.65405 7.23063 
481 1 1 0.0865766 6.43564 6.36938 
66 1 1 2.45895 5.74718 0.0217763 
468 1 1 1.60304 5.60832 7.31094 
472 1 1 3.3615 5.55246 7.13087 
471 1 1 4.08401 4.72972 7.06183 
491 1 1 4.08034 6.42893 7.18475 
97 1 1 6.32268 6.62166 0.052183 
476 1 1 4.74793 5.56378 7.19219 
495 1 1 5.4636 6.40303 7.38849 
497 1 1 6.32938 6.28628 6.28293 
479 1 1 7.15525 5.02313 7.35068 
480 1 1 6.39025 5.7997 7.19952 
78 1 1 7.05046 6.49359 7.36507 
82 1 1 0.794672 7.15374 0.0617532 
403 1 1 0.753057 7.89741 7.29083 
482 1 1 0.759699 7.1223 6.50054 
407 1 1 2.31369 0.0282569 7.40316 
489 1 1 3.30537 6.48693 6.42285 
487 1 1 2.52245 6.26077 7.01819 
488 1 1 1.59232 7.26895 7.29549 
492 1 1 3.32661 7.09516 7.19791 
490 1 1 3.92483 7.32574 6.37025 
90 1 1 3.96683 7.27431 8.06652 
417 1 1 6.49032 8.04778 6.50993 
415 1 1 5.72786 0.0827605 7.21227 
496 1 1 4.87524 7.38991 7.21057 
94 1 1 5.53911 7.35024 0.050396 
494 1 1 5.66456 7.17696 6.13073 
500 1 1 6.23031 7.26609 7.25129 
484 1 1 8.02792 7.29667 7.3831 
419 1 1 7.14661 7.94194 7.19848 
498 1 1 7.3104 7.06584 6.48981 
