ITEM: TIMESTEP
43000
ITEM: NUMBER OF ATOMS
500
ITEM: BOX BOUNDS pp pp pp
0 8.07388
0 8.07388
0 8.07388
ITEM: ATOMS id type mass x y z 
23 1 1 0.860652 1.65496 0.872028 
2 1 1 0.905385 0.88182 0.0136005 
25 1 1 1.62806 1.69014 7.98898 
1 1 1 0.199153 0.0149357 0.115627 
125 1 1 1.70647 1.61924 1.58408 
102 1 1 0.843849 0.788456 1.63548 
8 1 1 1.74113 1.07374 0.768541 
27 1 1 2.54767 1.73067 0.866789 
7 1 1 2.42951 0.0602299 0.750204 
9 1 1 3.14569 7.97913 7.94795 
106 1 1 2.33296 0.786689 1.54308 
105 1 1 1.58685 0.00982748 1.63403 
12 1 1 3.23047 0.76937 0.927346 
16 1 1 4.83169 0.752264 0.922502 
31 1 1 3.96562 1.69081 0.748145 
20 1 1 6.44809 0.78264 0.804993 
15 1 1 5.66224 8.0663 0.84823 
14 1 1 5.59258 0.814068 0.205442 
17 1 1 6.45743 7.89169 0.086303 
4 1 1 0.158944 1.0097 0.874241 
18 1 1 7.28624 0.783582 0.0771535 
24 1 1 0.00987336 2.49768 0.759256 
122 1 1 0.805889 2.49568 1.61269 
28 1 1 1.69837 2.32468 0.844158 
26 1 1 2.46624 2.28481 8.00524 
126 1 1 2.41396 2.65189 1.62408 
32 1 1 3.08561 2.6099 0.752379 
130 1 1 4.0568 2.72775 1.66265 
149 1 1 3.15847 3.30808 1.63266 
35 1 1 5.61793 1.51229 0.851421 
36 1 1 4.78085 2.57234 0.890103 
55 1 1 5.65085 3.30369 0.683845 
153 1 1 5.05241 3.36289 1.65339 
39 1 1 7.32043 1.56418 0.74276 
40 1 1 6.37493 2.44168 0.70102 
59 1 1 7.21219 3.25159 0.734751 
157 1 1 6.63686 3.2349 1.59776 
57 1 1 6.40323 3.30604 7.95095 
43 1 1 0.854941 3.17651 0.795056 
48 1 1 1.5659 4.01 0.870634 
42 1 1 0.867448 3.81349 -0.00119374 
165 1 1 1.70207 4.78431 1.65566 
63 1 1 0.758802 4.72407 0.638189 
47 1 1 2.37101 3.30039 0.839937 
46 1 1 2.28853 4.10422 8.06599 
146 1 1 2.4485 4.04947 1.92151 
52 1 1 3.11801 4.11797 0.644071 
67 1 1 2.35426 4.87748 0.773012 
49 1 1 3.0435 3.18292 0.0171917 
51 1 1 3.91379 3.15112 0.647683 
150 1 1 3.97149 3.79787 1.56879 
56 1 1 4.72008 4.05463 0.814285 
75 1 1 5.72543 4.71451 0.899527 
154 1 1 5.70716 4.11311 1.777 
44 1 1 8.09189 3.88026 0.937589 
60 1 1 6.48795 4.08208 0.793478 
161 1 1 7.36478 4.84267 0.663848 
65 1 1 1.58474 4.82793 7.95071 
61 1 1 0.121367 4.84463 7.97512 
68 1 1 1.48414 5.54703 0.692979 
83 1 1 0.728519 6.51246 0.94551 
72 1 1 3.19408 5.67467 0.822345 
185 1 1 1.50277 6.5074 1.64519 
69 1 1 3.10451 4.92127 8.04925 
66 1 1 2.25892 5.66233 7.98768 
71 1 1 3.93332 4.83778 0.777863 
89 1 1 3.11341 6.44025 8.00044 
91 1 1 3.90028 6.3374 0.800576 
76 1 1 4.93371 5.71054 0.723782 
193 1 1 4.9875 6.27806 1.57832 
189 1 1 3.19866 6.43383 1.56657 
74 1 1 5.61092 5.51184 0.0880616 
95 1 1 5.80223 6.42166 0.778922 
177 1 1 6.45595 4.69208 1.6599 
80 1 1 6.51017 5.56559 0.899512 
64 1 1 8.11574 5.61737 0.723837 
99 1 1 7.26945 6.45041 0.857403 
97 1 1 6.57672 6.37473 7.99787 
3 1 1 0.968312 0.224813 0.8411 
85 1 1 1.51897 6.55625 0.236585 
84 1 1 8.05425 7.28028 0.85407 
182 1 1 0.836107 7.31436 1.59978 
82 1 1 0.768987 7.29646 0.0332924 
81 1 1 0.125874 6.42956 0.0440601 
87 1 1 2.48103 6.48935 0.811524 
88 1 1 1.62538 7.33061 0.861893 
86 1 1 2.34197 7.22843 0.0180384 
11 1 1 4.14668 7.95064 0.834017 
92 1 1 3.20886 7.25111 0.631216 
109 1 1 3.27154 8.05316 1.56793 
96 1 1 4.87583 7.20798 0.720705 
113 1 1 4.8713 -0.00261205 1.63585 
100 1 1 6.5258 7.30976 0.93777 
19 1 1 7.32292 -0.00763899 0.78409 
197 1 1 6.48764 6.38279 1.65546 
202 1 1 1.03821 0.997893 3.21524 
108 1 1 1.64905 0.822413 2.34971 
107 1 1 2.50617 8.01595 2.33293 
110 1 1 4.0104 0.741289 1.54765 
112 1 1 3.2449 0.914324 2.13999 
210 1 1 4.14756 0.792852 3.44614 
116 1 1 4.68727 0.960844 2.27288 
114 1 1 5.68749 0.724548 1.61177 
101 1 1 0.103181 0.0529413 1.48835 
118 1 1 7.25278 0.830421 1.59921 
104 1 1 0.179621 0.730159 2.47832 
120 1 1 6.43458 0.749758 2.48287 
221 1 1 7.95173 1.62393 3.39885 
139 1 1 7.29759 1.4495 2.61151 
119 1 1 7.38843 8.10296 2.3294 
123 1 1 0.918886 1.6261 2.42341 
121 1 1 8.03084 1.44777 1.72218 
143 1 1 0.691914 3.3495 2.30149 
128 1 1 1.60822 2.38547 2.38188 
124 1 1 7.92419 2.34299 2.45096 
222 1 1 0.702032 2.4934 3.18287 
127 1 1 2.46179 1.71481 2.21971 
225 1 1 1.83959 1.6097 3.05957 
226 1 1 2.33068 2.43006 3.34642 
129 1 1 3.32509 1.84383 1.62524 
131 1 1 3.95945 1.58789 2.58335 
132 1 1 3.2373 2.37561 2.54605 
133 1 1 4.59385 1.70391 1.53974 
230 1 1 4.01202 2.24856 3.4997 
136 1 1 4.76182 2.43183 2.50373 
151 1 1 3.9961 3.28609 2.51449 
229 1 1 3.05475 1.616 3.1704 
134 1 1 5.7007 2.4441 1.46314 
135 1 1 5.4625 1.77353 2.15619 
140 1 1 6.54718 2.28217 2.2702 
155 1 1 5.68758 3.17297 2.39282 
137 1 1 6.4861 1.6436 1.43792 
141 1 1 7.9741 3.02928 1.73694 
138 1 1 7.18815 2.41931 1.3319 
238 1 1 7.2152 2.41527 3.23119 
163 1 1 0.0955048 4.94806 1.68182 
145 1 1 1.62319 3.28792 1.64361 
142 1 1 0.764685 4.00979 1.53632 
144 1 1 0.0148138 4.101 2.44052 
244 1 1 0.892867 4.02637 3.34251 
169 1 1 3.18099 4.86332 1.52034 
148 1 1 1.53982 3.9939 2.44655 
147 1 1 2.53081 3.14424 2.49358 
167 1 1 2.28265 4.8894 2.47958 
246 1 1 2.38144 4.15437 3.23835 
152 1 1 3.33514 4.02835 2.51506 
156 1 1 4.73995 4.12911 2.43694 
253 1 1 4.782 3.17083 3.45583 
250 1 1 4.01436 4.00355 3.33755 
160 1 1 6.64126 3.98369 2.4466 
175 1 1 5.56887 4.80094 2.5063 
159 1 1 7.21464 3.17773 2.53538 
158 1 1 7.31958 4.13607 1.50331 
179 1 1 7.3111 4.84598 2.51958 
162 1 1 0.845387 5.65591 1.61328 
242 1 1 0.967083 4.94385 2.42912 
262 1 1 0.81853 5.83964 3.2334 
164 1 1 0.026274 5.6387 2.46974 
261 1 1 0.0478855 4.8962 3.19606 
168 1 1 1.73265 5.77731 2.58707 
166 1 1 2.1773 5.76116 1.58537 
266 1 1 2.51524 5.56141 3.27584 
170 1 1 4.03246 5.66176 1.61932 
171 1 1 3.99124 4.79895 2.303 
172 1 1 3.18282 5.72771 2.21606 
191 1 1 4.09283 6.3167 2.51026 
174 1 1 5.75061 5.57961 1.88837 
173 1 1 4.7844 4.89531 1.38001 
176 1 1 4.8022 5.51204 2.71822 
195 1 1 5.73274 6.6354 2.39907 
178 1 1 7.27939 5.58863 1.51785 
180 1 1 6.4987 5.83059 2.51814 
199 1 1 7.26247 6.60039 2.48511 
278 1 1 7.35295 5.84591 3.17181 
181 1 1 7.9907 6.30285 1.59364 
183 1 1 0.775965 6.58357 2.52937 
285 1 1 1.70053 6.51618 3.1929 
103 1 1 0.938877 0.0308039 2.48206 
201 1 1 8.04012 8.05306 3.31263 
184 1 1 0.0814661 7.37271 2.41199 
187 1 1 2.36461 6.45199 2.31367 
188 1 1 1.61096 7.32159 2.41907 
186 1 1 2.31856 7.30787 1.52568 
286 1 1 2.57097 7.22485 3.03411 
190 1 1 4.18298 7.13674 1.42152 
111 1 1 4.07987 -0.0361222 2.29494 
192 1 1 3.28217 7.17041 2.30799 
194 1 1 5.48464 7.28513 1.61843 
196 1 1 4.87265 7.27177 2.476 
115 1 1 5.66349 -0.0103923 2.42294 
200 1 1 6.52675 7.34223 2.36247 
217 1 1 6.48191 7.91356 3.19521 
117 1 1 6.61292 8.04407 1.58677 
198 1 1 7.2795 7.19456 1.65468 
298 1 1 7.27408 7.33233 3.26636 
204 1 1 0.0776529 0.845878 4.08801 
203 1 1 0.857422 0.147395 3.9422 
205 1 1 1.69032 7.96873 3.26038 
208 1 1 1.86017 0.772224 3.93513 
206 1 1 2.53243 0.834008 2.99591 
306 1 1 2.38627 0.917895 4.97094 
212 1 1 3.05834 0.890483 3.99864 
305 1 1 1.96301 8.00227 4.66455 
309 1 1 3.08283 0.069126 4.66081 
231 1 1 3.90024 1.59542 4.24815 
216 1 1 4.77291 0.76149 4.36973 
310 1 1 3.93821 0.846852 4.92984 
214 1 1 5.46254 0.983342 2.86233 
233 1 1 4.76286 1.62425 3.34252 
235 1 1 5.44509 1.49256 4.15618 
218 1 1 7.14431 0.708698 3.28732 
220 1 1 6.12858 0.632349 3.95948 
239 1 1 7.26466 1.80864 4.15617 
318 1 1 7.35363 0.795972 4.96642 
301 1 1 0.141484 0.0147055 4.947 
317 1 1 6.53575 8.01115 4.94643 
223 1 1 0.881035 1.59763 4.35836 
224 1 1 0.186005 2.39768 4.01001 
245 1 1 1.67827 3.16664 3.2531 
241 1 1 7.98981 3.18753 3.24718 
249 1 1 3.3753 3.16492 3.35178 
227 1 1 2.23089 1.67854 4.05884 
228 1 1 1.50353 2.43258 4.07241 
329 1 1 3.15768 1.6938 5.05192 
232 1 1 3.12425 2.24906 4.02323 
236 1 1 4.93488 2.39039 4.02184 
251 1 1 4.08222 3.02792 4.10695 
237 1 1 6.52343 1.55364 3.47007 
234 1 1 5.66877 2.15357 3.17913 
255 1 1 5.71838 3.34096 4.12118 
257 1 1 6.51282 3.11414 3.34347 
341 1 1 7.99137 3.38713 4.87874 
240 1 1 6.40971 2.39667 3.99932 
259 1 1 7.30991 3.0358 3.98707 
243 1 1 0.88577 3.31213 4.21589 
248 1 1 1.6385 4.19946 4.03646 
358 1 1 0.085892 4.05651 3.96914 
247 1 1 2.42946 3.2795 4.08969 
252 1 1 3.21167 3.99062 3.99043 
267 1 1 2.45468 4.89047 4.0539 
269 1 1 3.25403 4.85358 3.16524 
349 1 1 3.27861 3.19168 4.72707 
256 1 1 4.87305 3.99329 4.21801 
254 1 1 5.72471 3.8488 3.11589 
273 1 1 4.72354 4.68561 3.40436 
260 1 1 6.57617 4.19004 4.20696 
275 1 1 5.78186 4.59025 3.80887 
277 1 1 6.54612 4.87533 3.21052 
258 1 1 7.27105 4.04559 3.29749 
379 1 1 7.22053 4.11019 4.98454 
281 1 1 8.11268 6.51987 3.31053 
263 1 1 0.731746 4.97627 3.99817 
268 1 1 1.64502 5.70658 3.82059 
361 1 1 7.95803 5.12799 4.76235 
289 1 1 3.21728 6.32888 3.00774 
265 1 1 1.65131 4.86824 3.24139 
287 1 1 2.71214 6.32491 3.98146 
272 1 1 3.27007 5.50715 4.01972 
366 1 1 2.42839 5.76157 4.92943 
369 1 1 3.16745 4.87887 4.82599 
389 1 1 3.29501 6.53978 4.75367 
270 1 1 3.87599 5.60839 3.23669 
271 1 1 3.94486 4.65478 4.14375 
291 1 1 3.85822 6.49065 3.89929 
276 1 1 4.82919 5.75223 4.10867 
393 1 1 4.82564 6.47615 5.00832 
274 1 1 5.65436 5.58899 3.44263 
293 1 1 4.8538 6.46774 3.17412 
280 1 1 6.57197 5.64003 3.96326 
264 1 1 0.00662774 5.7566 3.95662 
279 1 1 7.33292 4.93341 3.83605 
299 1 1 7.29903 6.36247 4.03043 
282 1 1 0.761232 7.29205 3.28134 
381 1 1 0.125552 6.47038 4.89752 
385 1 1 1.64949 6.53408 4.85561 
283 1 1 0.836759 6.53589 4.08171 
288 1 1 1.76682 7.18784 3.98168 
284 1 1 8.04019 7.25527 4.17695 
382 1 1 0.970511 7.35376 4.80339 
209 1 1 3.39817 0.230268 3.10948 
207 1 1 2.58727 0.00551802 3.80486 
290 1 1 4.11844 7.18567 3.18659 
211 1 1 4.16344 8.05653 4.07106 
292 1 1 3.2315 7.30009 3.8637 
213 1 1 4.83393 7.95961 3.20616 
294 1 1 5.61181 7.20022 3.24768 
296 1 1 4.72025 7.10591 4.10766 
215 1 1 5.45697 7.91512 4.22301 
295 1 1 5.80499 6.41096 4.07362 
394 1 1 5.677 7.24649 4.95884 
297 1 1 6.38997 6.60233 3.17175 
219 1 1 7.40245 0.0622294 4.19631 
300 1 1 6.51906 7.28982 4.16821 
398 1 1 7.30831 7.27307 4.94331 
302 1 1 1.10216 0.547627 4.81941 
308 1 1 1.62073 0.671744 5.72812 
402 1 1 0.870966 0.653761 6.54605 
312 1 1 3.20002 0.921305 5.68765 
307 1 1 2.65221 8.08102 5.75933 
406 1 1 2.51805 0.684678 6.48868 
316 1 1 4.7341 0.8327 5.87716 
333 1 1 4.88567 1.56866 5.01999 
433 1 1 4.87474 1.66805 6.52066 
410 1 1 3.86895 0.917615 6.43225 
314 1 1 5.68918 0.826638 4.9368 
320 1 1 6.40003 0.868087 5.86651 
335 1 1 5.67944 1.61323 5.80072 
414 1 1 5.62273 0.895174 6.57242 
337 1 1 6.33551 1.52545 4.66132 
304 1 1 0.0486226 0.700415 5.73601 
319 1 1 7.20599 8.11319 5.76244 
339 1 1 7.28661 1.6079 5.70711 
323 1 1 0.763364 1.49094 5.79848 
321 1 1 8.09573 1.49134 4.97823 
322 1 1 0.760755 2.51044 4.945 
422 1 1 0.708225 2.31616 6.5603 
328 1 1 1.59363 2.47228 5.64476 
425 1 1 1.57475 1.41847 6.56213 
345 1 1 1.74163 3.18901 4.79685 
325 1 1 1.57651 1.62793 5.09134 
327 1 1 2.3923 1.56684 5.78116 
326 1 1 2.32986 2.37815 4.91168 
347 1 1 2.39844 3.30187 5.61726 
331 1 1 4.01445 1.7168 5.73355 
332 1 1 3.31882 2.48269 5.71644 
330 1 1 4.16242 2.40961 4.94583 
430 1 1 4.01204 2.47105 6.49794 
353 1 1 4.81341 3.22662 4.90756 
336 1 1 4.8919 2.39204 5.67451 
334 1 1 5.68457 2.44926 4.83817 
434 1 1 5.65475 2.37344 6.64761 
357 1 1 6.5287 3.15757 4.88598 
340 1 1 6.32354 2.5111 5.73826 
355 1 1 5.65258 3.31909 5.56511 
338 1 1 7.33427 2.41809 4.97991 
324 1 1 7.96991 2.34372 5.80799 
457 1 1 6.38311 3.26266 6.4624 
359 1 1 7.26783 3.222 5.76016 
437 1 1 6.34651 1.64881 6.72695 
438 1 1 7.21691 2.46385 6.57109 
342 1 1 0.652097 4.202 4.85436 
343 1 1 0.622049 3.22272 5.7146 
365 1 1 1.67358 4.72095 4.89074 
348 1 1 1.54031 3.84819 5.56935 
442 1 1 0.844186 4.02881 6.44845 
465 1 1 1.44343 4.94883 6.38819 
346 1 1 2.52317 4.00468 4.82363 
352 1 1 3.17837 4.11936 5.61883 
351 1 1 3.95665 3.19268 5.51658 
350 1 1 4.0308 3.99647 4.97022 
356 1 1 4.7753 3.96004 5.63476 
354 1 1 5.76984 4.0764 4.8232 
373 1 1 4.74227 4.81035 4.84509 
454 1 1 5.59354 4.00252 6.33359 
344 1 1 8.0798 4.09126 5.66518 
360 1 1 6.47143 3.93732 5.70452 
362 1 1 0.900246 5.67606 4.7267 
363 1 1 0.523364 5.03623 5.67485 
462 1 1 0.745798 5.77414 6.50417 
367 1 1 2.3742 4.78927 5.72319 
368 1 1 1.65799 5.74734 5.72728 
372 1 1 3.1878 5.55657 5.60513 
371 1 1 4.05608 4.9586 5.68038 
370 1 1 4.01144 5.77303 4.81333 
470 1 1 4.17405 5.68773 6.53786 
376 1 1 4.98119 5.65188 5.58035 
374 1 1 5.69657 5.61651 4.84488 
375 1 1 5.51785 4.6394 5.52288 
397 1 1 6.49256 6.56358 5.00232 
364 1 1 8.08625 5.8251 5.68601 
378 1 1 7.24453 5.77083 4.98053 
377 1 1 6.58585 4.98231 4.74665 
478 1 1 7.29604 4.79116 5.78767 
380 1 1 6.39515 5.61831 5.63296 
405 1 1 1.73322 7.99953 6.36417 
303 1 1 0.854226 7.94704 5.67687 
383 1 1 0.848383 6.4704 5.62734 
482 1 1 0.788536 7.25581 6.34172 
388 1 1 1.69146 7.17112 5.59487 
386 1 1 2.5601 7.18638 5.02492 
387 1 1 2.34857 6.46919 5.70428 
409 1 1 3.39446 0.0294756 6.51884 
392 1 1 3.23092 7.13287 5.90412 
313 1 1 4.85701 0.0463658 5.15601 
311 1 1 3.85408 0.0700834 5.51073 
390 1 1 4.05514 7.28676 4.91434 
391 1 1 4.07759 6.32523 5.68094 
315 1 1 5.68898 0.168097 5.78738 
395 1 1 5.77838 6.49732 5.85116 
396 1 1 4.97588 7.29506 5.66231 
494 1 1 5.67744 7.26456 6.42424 
493 1 1 4.81533 6.55662 6.62653 
400 1 1 6.4601 7.32028 5.8509 
384 1 1 8.02276 7.3043 5.74841 
399 1 1 7.24086 6.62626 5.85649 
421 1 1 8.03003 1.50438 6.57348 
404 1 1 0.18736 0.730739 7.50805 
408 1 1 1.68322 0.567552 7.24111 
423 1 1 0.704297 1.58645 7.31791 
6 1 1 2.45828 0.94274 8.03833 
29 1 1 3.34193 1.68797 8.01357 
412 1 1 3.27476 0.775147 7.31512 
407 1 1 2.45993 7.98675 7.11531 
10 1 1 3.89973 0.674664 0.181405 
413 1 1 4.83351 8.01964 6.56035 
411 1 1 4.12628 7.90088 7.32999 
416 1 1 4.76702 0.699565 7.44415 
33 1 1 4.6636 1.56351 0.0771966 
435 1 1 5.56324 1.57645 7.53024 
415 1 1 5.63729 0.19513 7.37825 
21 1 1 0.0196591 1.5938 0.0469847 
37 1 1 6.51672 1.66246 8.02812 
418 1 1 7.25248 0.701372 6.54507 
420 1 1 6.35087 0.826591 7.50399 
419 1 1 7.51811 0.00518715 7.43334 
439 1 1 7.27706 1.69566 7.30234 
22 1 1 0.789694 2.32527 -0.0143915 
41 1 1 8.02544 3.29112 8.1061 
443 1 1 0.733269 3.11181 7.28586 
424 1 1 8.02434 2.45578 7.34871 
428 1 1 1.58663 2.43488 7.12271 
45 1 1 1.65602 2.971 7.97013 
429 1 1 3.20323 1.68455 6.5301 
426 1 1 2.40784 2.52131 6.4629 
427 1 1 2.41171 1.55328 7.19425 
432 1 1 3.20346 2.62769 7.29543 
431 1 1 4.11853 1.66446 7.24146 
30 1 1 4.11265 2.34614 7.98621 
451 1 1 4.094 3.17605 7.24153 
34 1 1 5.54548 2.40003 0.0305416 
453 1 1 4.80227 3.3151 6.46023 
436 1 1 4.84997 2.51812 7.2813 
455 1 1 5.51874 3.41039 7.22699 
53 1 1 4.83397 3.3619 -0.0061845 
38 1 1 7.21719 2.45611 8.04928 
440 1 1 6.40994 2.51514 7.36351 
441 1 1 7.95067 3.1591 6.50067 
444 1 1 8.06315 3.99804 7.26418 
448 1 1 1.50002 3.93693 7.21906 
446 1 1 2.21372 3.91636 6.45537 
447 1 1 2.38999 3.27406 7.31822 
445 1 1 1.40808 3.1488 6.48426 
452 1 1 3.2886 4.06934 7.14821 
449 1 1 3.07186 3.24932 6.38358 
50 1 1 3.90241 3.99177 -0.00124574 
450 1 1 3.98705 4.13777 6.32483 
73 1 1 4.80265 4.87772 8.06229 
456 1 1 4.6156 4.11281 7.13786 
54 1 1 5.5643 4.12849 8.01176 
460 1 1 6.33599 4.05886 7.18971 
58 1 1 7.16666 3.97307 8.07129 
459 1 1 7.254 3.21304 7.28148 
77 1 1 6.43952 4.64027 8.02394 
458 1 1 7.20357 4.01179 6.55265 
463 1 1 0.742301 4.86953 7.15208 
62 1 1 0.787881 5.69349 8.04483 
464 1 1 7.97779 5.51181 7.20701 
468 1 1 1.58914 5.63783 7.16471 
466 1 1 2.38603 5.70296 6.48492 
467 1 1 2.30011 4.78288 7.13585 
469 1 1 3.36316 4.8705 6.54983 
472 1 1 3.04875 5.66604 7.30415 
473 1 1 4.8644 4.82675 6.23516 
70 1 1 4.09512 5.66092 0.0225381 
471 1 1 3.89641 4.94536 7.37709 
476 1 1 4.84354 5.64634 7.37358 
491 1 1 4.05922 6.40801 7.2796 
93 1 1 4.9897 6.37578 8.08021 
474 1 1 5.56228 5.62663 6.48924 
475 1 1 5.513 4.90775 7.27934 
480 1 1 6.43463 5.60509 7.21097 
477 1 1 6.29761 4.85592 6.23773 
479 1 1 7.18136 4.73254 7.30229 
461 1 1 7.99883 4.79184 6.50602 
499 1 1 7.14581 5.69166 6.32685 
79 1 1 7.24282 5.56554 8.01575 
401 1 1 0.0948811 -0.0235722 6.38717 
485 1 1 1.55163 6.47937 6.43297 
403 1 1 0.866345 7.94257 7.37902 
483 1 1 0.932285 6.50428 7.28989 
484 1 1 0.208232 7.25017 7.1351 
5 1 1 1.71197 0.162266 0.151416 
489 1 1 3.25565 6.31557 6.52543 
488 1 1 1.54412 7.28241 7.24315 
486 1 1 2.3953 7.25546 6.40326 
487 1 1 2.28794 6.52733 7.29293 
492 1 1 3.27221 7.1448 7.13865 
13 1 1 4.85166 0.0506975 0.0447838 
90 1 1 4.13492 7.16262 0.0214845 
490 1 1 4.09252 7.27829 6.4044 
496 1 1 4.98287 7.31033 7.23373 
94 1 1 5.79993 7.13919 0.122536 
495 1 1 5.66395 6.43684 7.23338 
417 1 1 6.36705 0.0897738 6.48951 
500 1 1 6.22777 7.37999 7.3323 
481 1 1 0.0806861 6.42729 6.68238 
497 1 1 6.61316 6.5147 6.71781 
498 1 1 7.15617 7.51362 6.6038 
98 1 1 7.35255 7.2393 0.0697174 
78 1 1 7.39035 6.48341 7.4458 
