ITEM: TIMESTEP
25000
ITEM: NUMBER OF ATOMS
500
ITEM: BOX BOUNDS pp pp pp
0 8.07388
0 8.07388
0 8.07388
ITEM: ATOMS id type mass x y z 
102 1 1 0.919196 0.827147 1.68961 
8 1 1 1.57728 1.09136 0.929326 
4 1 1 0.04982 0.788037 0.94406 
23 1 1 0.722417 1.70813 0.804492 
2 1 1 0.856644 0.74442 0.0463622 
7 1 1 2.48021 0.136903 0.776136 
12 1 1 3.17496 0.815535 0.857974 
106 1 1 2.33684 0.961979 1.68094 
6 1 1 2.51007 0.87395 -0.0109362 
29 1 1 3.32611 1.63944 0.231667 
31 1 1 4.10787 1.6867 0.839793 
11 1 1 4.02762 0.0647057 0.799098 
110 1 1 4.07512 0.883738 1.42741 
16 1 1 4.76695 0.89067 0.573074 
15 1 1 5.78903 0.0921011 0.853487 
14 1 1 5.68797 0.876155 7.89765 
33 1 1 4.85019 1.70448 8.02829 
20 1 1 6.4169 0.881029 0.778353 
1 1 1 0.0504779 -0.0214476 0.119923 
21 1 1 0.0142999 1.83607 0.0795683 
125 1 1 1.6405 1.61179 1.91429 
24 1 1 8.05918 2.51648 0.817222 
25 1 1 1.6501 1.61003 8.05266 
22 1 1 0.907166 2.56814 0.0376753 
27 1 1 2.42975 1.5744 0.825239 
28 1 1 1.53057 2.18966 1.02576 
47 1 1 2.47636 3.0177 0.962376 
26 1 1 2.42495 2.23855 8.04942 
126 1 1 2.3612 2.46341 1.77923 
145 1 1 1.58437 3.07326 1.67654 
32 1 1 3.36178 2.44616 0.855443 
130 1 1 4.01102 2.48192 1.68738 
51 1 1 4.11838 3.28964 0.896138 
36 1 1 4.94584 2.55905 0.763116 
35 1 1 5.54556 1.6508 0.722677 
34 1 1 5.77483 2.38892 7.9907 
57 1 1 6.25531 3.34145 0.0934126 
39 1 1 7.22011 1.67144 0.846539 
40 1 1 6.43766 2.45277 0.795197 
38 1 1 7.0962 2.42984 0.0250558 
43 1 1 0.635222 3.18645 1.06572 
142 1 1 0.782475 4.11936 1.39476 
44 1 1 7.91174 4.03115 0.773 
42 1 1 0.772533 4.02777 0.247178 
45 1 1 1.81611 3.07757 0.168733 
48 1 1 1.74173 4.03137 0.756925 
52 1 1 3.36639 4.00452 0.924752 
56 1 1 4.78339 4.08818 0.8676 
150 1 1 4.13316 3.85221 1.72233 
55 1 1 5.64494 3.30025 0.873437 
75 1 1 5.73384 4.88116 0.789453 
154 1 1 5.61239 4.10194 1.57019 
60 1 1 6.35799 4.02627 0.785648 
141 1 1 7.91808 3.21408 1.63936 
59 1 1 7.19338 3.19339 0.851494 
58 1 1 7.18209 3.95442 0.0293425 
161 1 1 7.08985 4.7732 0.772063 
63 1 1 0.697732 4.94847 0.703269 
64 1 1 7.69161 5.53975 0.754204 
185 1 1 1.47013 6.58239 1.50627 
165 1 1 1.71006 4.8783 1.58788 
67 1 1 2.51019 4.79068 0.851079 
68 1 1 1.36649 5.75449 0.68905 
166 1 1 2.42022 5.79385 1.43598 
169 1 1 3.27037 4.93023 1.56369 
73 1 1 4.69964 4.90261 8.08062 
71 1 1 4.07363 5.01565 0.739865 
72 1 1 3.29079 5.69052 0.754735 
76 1 1 4.87581 5.73413 0.626971 
173 1 1 4.95495 5.01334 1.63341 
193 1 1 4.9865 6.36206 1.46993 
95 1 1 5.66035 6.63577 0.858871 
197 1 1 6.46147 6.59144 1.69809 
174 1 1 5.6789 5.6823 1.66282 
80 1 1 6.43238 5.86677 0.946698 
177 1 1 6.43224 4.83528 1.78217 
178 1 1 7.21686 5.77734 1.63028 
99 1 1 7.18506 6.66369 0.826526 
61 1 1 7.96319 4.88226 8.06631 
79 1 1 7.08713 5.51973 7.89101 
3 1 1 0.803304 0.112148 1.03842 
83 1 1 0.699145 6.44798 0.73802 
88 1 1 1.61148 7.41239 0.822585 
182 1 1 0.749671 7.35505 1.70672 
87 1 1 2.44647 6.47828 0.756164 
186 1 1 2.44362 7.41532 1.76397 
86 1 1 2.53166 7.24856 7.83707 
189 1 1 3.35666 6.49062 1.47657 
89 1 1 3.28309 6.5744 7.95168 
91 1 1 4.0008 6.49561 0.697812 
92 1 1 3.10333 7.28542 0.697909 
96 1 1 4.9295 7.40549 0.804091 
190 1 1 4.10708 7.35064 1.51288 
97 1 1 6.42442 6.4493 0.10999 
194 1 1 5.71741 7.44675 1.76014 
100 1 1 6.54183 7.47215 0.903294 
117 1 1 6.38158 0.124771 1.64755 
17 1 1 6.52412 0.15276 8.03281 
181 1 1 7.98298 6.51375 1.49707 
19 1 1 7.38743 8.02723 0.914185 
84 1 1 7.99553 7.19828 0.592344 
108 1 1 1.68547 0.644903 2.50833 
103 1 1 0.818329 0.139519 2.36175 
105 1 1 1.81032 0.0862938 1.53307 
104 1 1 7.97589 0.711143 2.63011 
109 1 1 3.25793 -0.00212519 1.53037 
112 1 1 3.2052 0.837461 2.37917 
206 1 1 2.40408 0.879903 3.23394 
107 1 1 2.52844 0.0438075 2.51601 
210 1 1 4.12498 0.77264 3.16 
129 1 1 3.24175 1.64628 1.68542 
229 1 1 3.17926 1.502 3.2948 
131 1 1 4.11731 1.62243 2.56633 
113 1 1 4.90007 0.224184 1.49429 
116 1 1 4.81381 0.920729 2.38795 
114 1 1 5.69712 0.933335 1.49649 
135 1 1 5.5974 1.7124 2.35889 
101 1 1 0.00211975 -0.00320349 1.76031 
120 1 1 6.32272 0.831866 2.41972 
118 1 1 7.15713 0.790159 1.61096 
121 1 1 8.02691 1.60803 1.58321 
122 1 1 0.852521 2.25915 1.79074 
123 1 1 0.543135 1.44926 2.52073 
143 1 1 0.852119 3.27571 2.37538 
241 1 1 8.02979 3.11062 3.12678 
225 1 1 1.54543 1.41751 3.0949 
127 1 1 2.45463 1.62754 2.54092 
128 1 1 1.62764 2.38194 2.55986 
147 1 1 2.51804 3.24538 2.5388 
132 1 1 3.36198 2.43397 2.43985 
149 1 1 3.29406 3.24677 1.76239 
151 1 1 3.99621 3.26751 2.59803 
134 1 1 5.74085 2.43682 1.6123 
133 1 1 4.85471 1.54927 1.49865 
136 1 1 4.77937 2.41021 2.41884 
155 1 1 5.63537 3.2024 2.44839 
137 1 1 6.47495 1.58585 1.63687 
124 1 1 7.96849 2.37609 2.40361 
140 1 1 6.46442 2.47842 2.41543 
138 1 1 7.12702 2.40407 1.66378 
139 1 1 7.29317 1.6393 2.49929 
159 1 1 7.3355 3.22758 2.4072 
144 1 1 0.106718 3.98469 2.4711 
244 1 1 0.851683 4.061 3.24623 
242 1 1 0.849569 4.89372 2.36717 
148 1 1 1.83838 4.01007 2.37617 
146 1 1 2.47829 3.86643 1.54882 
167 1 1 2.57443 4.86977 2.29246 
246 1 1 2.44398 3.94081 3.39532 
269 1 1 3.23887 4.72588 3.09363 
152 1 1 3.19076 4.08865 2.32895 
156 1 1 4.85865 4.04447 2.39354 
171 1 1 4.0057 4.74749 2.35131 
157 1 1 6.48364 3.18834 1.76447 
153 1 1 4.94167 3.12327 1.62502 
175 1 1 5.69626 4.83335 2.42012 
160 1 1 6.52922 3.95631 2.47052 
158 1 1 7.28995 4.02197 1.55214 
258 1 1 7.22649 4.15929 3.17274 
277 1 1 6.41269 4.73458 3.2588 
261 1 1 0.0377005 4.89484 3.09605 
162 1 1 0.642128 5.61058 1.59858 
168 1 1 1.80899 5.659 2.33547 
164 1 1 7.91129 5.78433 2.35766 
187 1 1 2.59044 6.45657 2.4737 
273 1 1 4.73259 4.78355 3.19736 
172 1 1 3.38096 5.51899 2.36747 
170 1 1 4.04956 5.62031 1.55337 
270 1 1 4.00137 5.62716 3.18325 
176 1 1 4.85484 5.52978 2.45859 
195 1 1 5.62964 6.54672 2.59721 
163 1 1 7.9526 4.76932 1.81345 
179 1 1 7.15731 4.95538 2.5151 
180 1 1 6.39468 5.68696 2.455 
199 1 1 7.17683 6.46378 2.68371 
183 1 1 0.878376 6.63858 2.32347 
188 1 1 1.70757 7.45928 2.36338 
286 1 1 2.39221 7.3411 3.26224 
192 1 1 3.25581 7.31246 2.56604 
209 1 1 3.29513 0.0262602 3.28166 
191 1 1 3.89762 6.43324 2.37483 
111 1 1 4.00049 0.0950217 2.44523 
289 1 1 3.30776 6.40786 3.25086 
290 1 1 4.2069 7.20728 3.20317 
213 1 1 4.81282 -0.00138812 3.29016 
115 1 1 5.52994 0.133094 2.57709 
196 1 1 4.86468 7.24935 2.30568 
293 1 1 4.8241 6.39688 3.3991 
294 1 1 5.58702 7.35764 3.34054 
198 1 1 7.25132 7.26412 1.88932 
217 1 1 6.4209 0.0847367 3.29382 
200 1 1 6.37662 7.37317 2.5588 
184 1 1 7.97687 7.27409 2.6902 
119 1 1 7.20891 -0.00247745 2.60624 
202 1 1 0.909365 0.722637 3.61635 
302 1 1 0.880331 0.750462 4.74596 
203 1 1 0.800466 7.84454 4.19052 
208 1 1 1.76142 0.9716 4.05293 
301 1 1 0.130637 0.0585117 4.97888 
227 1 1 2.45375 1.6848 4.022 
207 1 1 2.32346 0.0106695 4.10857 
212 1 1 3.13742 0.805245 4.05337 
310 1 1 3.85536 0.827756 5.00699 
211 1 1 3.91773 0.095561 4.14753 
214 1 1 5.66685 0.881746 3.25079 
216 1 1 4.7731 0.850606 4.1053 
314 1 1 5.53903 0.818516 4.90294 
218 1 1 7.12145 0.921742 3.28206 
237 1 1 6.5254 1.74376 3.18253 
220 1 1 6.48426 0.819181 4.15466 
204 1 1 7.88604 0.917401 3.98127 
318 1 1 7.23559 0.801584 4.91993 
223 1 1 0.969324 1.76639 3.82147 
222 1 1 0.710507 2.36264 3.06768 
228 1 1 1.72178 2.55705 3.9985 
243 1 1 0.690973 3.17955 3.86813 
321 1 1 0.225794 1.58926 4.7194 
245 1 1 1.4866 3.21108 3.22072 
329 1 1 3.15973 1.67968 4.89242 
226 1 1 2.58082 2.30012 3.19454 
247 1 1 2.54347 3.18104 4.27552 
326 1 1 2.33003 2.36946 4.82451 
253 1 1 4.81376 3.17976 3.36724 
231 1 1 3.94808 1.51562 4.07268 
232 1 1 3.25668 2.36224 4.01492 
249 1 1 3.21015 3.13694 3.38127 
230 1 1 4.0821 2.40908 3.35143 
251 1 1 4.0462 3.23744 4.08026 
353 1 1 4.76756 3.18122 4.86914 
235 1 1 5.65936 1.48367 4.09736 
233 1 1 4.75072 1.54722 3.37547 
236 1 1 4.83282 2.48398 4.13861 
234 1 1 5.61152 2.5484 3.32933 
240 1 1 6.30809 2.38018 4.05284 
255 1 1 5.5399 3.15423 4.12667 
221 1 1 8.02521 1.61643 3.25175 
337 1 1 6.46495 1.56005 4.82921 
239 1 1 7.15945 1.60632 4.10803 
238 1 1 7.26666 2.37026 3.36899 
224 1 1 8.07612 2.37508 4.10978 
338 1 1 7.32433 2.37959 4.85599 
248 1 1 1.58621 3.90982 4.03413 
265 1 1 1.78601 4.70274 3.09908 
263 1 1 0.809829 4.82294 3.88476 
267 1 1 2.52272 4.84402 3.92523 
252 1 1 3.30516 3.95097 4.05416 
369 1 1 3.23564 4.97069 4.88759 
250 1 1 3.94145 3.9705 3.27595 
256 1 1 4.70472 4.02806 4.01279 
350 1 1 4.05153 4.00431 4.83414 
257 1 1 6.34098 3.17153 3.43209 
254 1 1 5.54576 3.94065 3.26949 
260 1 1 6.43159 3.92011 4.0169 
357 1 1 6.48554 3.21662 4.73838 
354 1 1 5.43795 3.92729 4.78231 
358 1 1 7.94911 4.01105 3.84285 
259 1 1 7.25865 3.14884 3.9992 
279 1 1 7.37677 4.9111 4.12402 
262 1 1 0.911834 5.82298 2.91563 
268 1 1 1.59338 5.52574 3.70819 
283 1 1 1.00426 6.32079 3.95277 
281 1 1 -0.00770088 6.31643 3.1949 
266 1 1 2.5998 5.64104 3.10197 
272 1 1 3.33612 5.57205 4.00257 
366 1 1 2.14357 5.36376 4.75434 
271 1 1 3.99313 4.80253 4.02146 
370 1 1 4.17119 5.60356 4.80038 
274 1 1 5.69431 5.57078 3.22054 
275 1 1 5.53119 4.73867 3.90633 
276 1 1 4.81624 5.56287 3.94323 
297 1 1 6.46373 6.53405 3.3826 
373 1 1 4.82569 4.85206 4.65073 
264 1 1 0.0258927 5.63574 4.00998 
280 1 1 6.41138 5.57734 3.95794 
278 1 1 7.23808 5.61099 3.32264 
299 1 1 7.30808 6.45236 4.02683 
378 1 1 7.13778 5.76796 4.75296 
285 1 1 1.68664 6.49588 3.2029 
282 1 1 0.828727 7.25787 3.29835 
284 1 1 -0.046197 7.0791 4.26557 
205 1 1 1.48882 -0.0275377 3.2199 
288 1 1 1.68212 7.24398 4.0356 
287 1 1 2.53524 6.2897 3.93329 
292 1 1 3.27295 7.2549 4.08703 
291 1 1 4.13748 6.41576 4.13452 
296 1 1 4.83764 7.34035 4.08437 
313 1 1 4.81327 0.0703915 4.87608 
215 1 1 5.65749 0.142497 4.04529 
295 1 1 5.66481 6.36857 4.0337 
201 1 1 8.08967 7.94679 3.57804 
219 1 1 7.21901 8.0074 4.28299 
300 1 1 6.46173 7.42407 4.21616 
298 1 1 7.1011 7.37487 3.39633 
305 1 1 1.79826 7.9494 4.95973 
304 1 1 0.0100347 0.812478 5.69334 
303 1 1 0.920452 7.96267 5.57073 
306 1 1 2.47118 0.957888 4.90632 
308 1 1 1.60278 0.949458 5.52875 
307 1 1 2.5343 7.88641 5.8675 
312 1 1 3.17757 0.835388 5.80807 
429 1 1 3.23866 1.661 6.45234 
409 1 1 3.19287 0.022497 6.62295 
311 1 1 3.93614 0.0730501 5.86564 
331 1 1 3.9909 1.62472 5.72239 
316 1 1 4.7073 0.97394 5.76372 
315 1 1 5.67605 8.03461 5.75652 
414 1 1 5.60852 0.758442 6.51715 
320 1 1 6.45963 0.820093 5.68669 
319 1 1 7.34284 0.0874104 5.71436 
417 1 1 6.54655 0.127549 6.38406 
418 1 1 7.29626 0.844133 6.37094 
322 1 1 0.837018 2.61293 4.76759 
341 1 1 8.08165 3.13557 4.85854 
323 1 1 0.780734 1.7858 5.64807 
328 1 1 1.5582 2.43927 5.75309 
325 1 1 1.48474 1.78672 4.77073 
327 1 1 2.27881 1.65843 5.66993 
332 1 1 3.28075 2.44755 5.49687 
425 1 1 1.55388 1.71567 6.56956 
445 1 1 1.61511 3.19928 6.57678 
349 1 1 3.35249 3.25767 4.91441 
330 1 1 4.03566 2.29514 4.87253 
430 1 1 4.08585 2.46087 6.42187 
351 1 1 3.95429 3.3298 5.70474 
449 1 1 3.33079 3.11438 6.52279 
334 1 1 5.58123 2.4461 4.83085 
333 1 1 4.78326 1.64183 4.86696 
336 1 1 4.8237 2.525 5.75084 
335 1 1 5.71327 1.59508 5.61444 
340 1 1 6.50174 2.56956 5.54924 
433 1 1 4.7203 1.67146 6.52207 
339 1 1 7.09663 1.64645 5.62485 
457 1 1 6.36823 3.45753 6.28911 
324 1 1 0.0126851 2.48642 5.73053 
359 1 1 7.38543 3.27398 5.63667 
343 1 1 0.773756 3.29741 5.68718 
345 1 1 1.77154 3.25194 4.88555 
342 1 1 0.731718 3.78041 4.73907 
363 1 1 1.00713 4.78822 5.76942 
346 1 1 2.54794 4.19434 4.8403 
347 1 1 2.44497 3.07915 5.80523 
348 1 1 1.75127 3.8559 5.75453 
365 1 1 1.4433 4.54489 4.84756 
446 1 1 2.49403 3.90962 6.58774 
352 1 1 3.08608 3.90541 5.74543 
371 1 1 3.96702 4.7503 5.69834 
355 1 1 5.59181 3.23725 5.54077 
356 1 1 4.72134 4.07377 5.68033 
360 1 1 6.50877 3.96174 5.37377 
375 1 1 5.66137 4.78433 5.64383 
377 1 1 6.45545 4.8971 4.82226 
344 1 1 0.20832 4.25895 5.50241 
379 1 1 7.3249 3.97408 4.64039 
478 1 1 7.29018 4.80974 5.49811 
458 1 1 7.2271 3.99493 6.34693 
362 1 1 1.03205 5.59705 4.85773 
364 1 1 0.00392024 5.55107 5.58565 
367 1 1 2.48227 4.77192 5.68368 
368 1 1 1.75016 5.52244 5.76161 
387 1 1 2.302 6.46402 5.83712 
372 1 1 3.3445 5.60892 5.71489 
393 1 1 4.86046 6.35548 4.99418 
391 1 1 4.11369 6.36302 5.66657 
374 1 1 5.57042 5.60654 4.69783 
397 1 1 6.59556 6.62546 4.87004 
376 1 1 4.83244 5.37691 5.53532 
380 1 1 6.48088 5.58468 5.5604 
395 1 1 5.82033 6.49155 5.58255 
361 1 1 0.200565 4.75526 4.62725 
381 1 1 0.0979173 6.31622 4.90981 
399 1 1 7.23864 6.40938 5.69879 
382 1 1 1.02024 7.19506 4.86479 
383 1 1 0.898775 6.36125 5.4757 
388 1 1 1.67114 7.30865 5.70879 
385 1 1 1.78082 6.37346 4.95371 
386 1 1 2.45835 7.15948 4.76843 
392 1 1 3.22584 7.02663 5.71803 
309 1 1 2.97859 0.105271 4.89595 
390 1 1 3.95662 7.23784 4.99756 
389 1 1 3.17991 6.21347 4.97035 
490 1 1 4.00093 7.19133 6.31089 
317 1 1 6.44533 0.0328295 5.00834 
396 1 1 4.78486 7.2531 5.57567 
394 1 1 5.59654 7.37732 4.84817 
494 1 1 5.71991 7.1802 6.45531 
398 1 1 7.4856 7.33981 5.08252 
400 1 1 6.43491 7.33916 5.70799 
384 1 1 0.238465 7.13148 5.59171 
402 1 1 0.91326 0.858503 6.25994 
5 1 1 1.6311 0.241962 0.115368 
403 1 1 0.804063 7.96975 7.39075 
408 1 1 1.35173 0.772 7.1689 
406 1 1 2.18611 0.726036 6.45319 
427 1 1 2.2752 1.40383 7.24369 
407 1 1 2.34964 0.120814 7.34731 
410 1 1 4.07423 0.792184 6.60671 
412 1 1 3.13824 0.820285 7.24203 
10 1 1 3.96413 0.781106 7.92588 
431 1 1 4.09176 1.75109 7.35174 
9 1 1 3.13838 8.01013 0.0186263 
413 1 1 4.82796 0.0118384 6.45472 
13 1 1 4.88321 0.0385819 8.08278 
416 1 1 4.81455 0.88959 7.30764 
415 1 1 5.6655 0.0325172 7.23068 
401 1 1 0.233491 0.0703661 6.42751 
420 1 1 6.54981 0.809075 7.1447 
18 1 1 7.55115 0.933667 0.0590987 
404 1 1 0.323621 0.762869 7.22688 
419 1 1 7.4856 0.221303 7.29855 
423 1 1 0.872087 1.7034 7.39231 
422 1 1 0.865978 2.50145 6.48928 
41 1 1 8.02932 3.20782 0.0806557 
424 1 1 0.0479789 2.49499 7.15353 
443 1 1 0.795326 3.34142 7.45858 
426 1 1 2.46535 2.33165 6.53629 
428 1 1 1.65951 2.47076 7.3019 
30 1 1 4.01443 2.4385 0.0649191 
49 1 1 3.16584 3.18842 0.0590495 
432 1 1 3.29187 2.33074 7.38661 
436 1 1 4.89107 2.4413 7.19826 
434 1 1 5.60466 2.36375 6.36598 
435 1 1 5.53799 1.67761 7.14152 
440 1 1 6.43678 2.48747 7.17181 
438 1 1 7.17687 2.67895 6.41966 
37 1 1 6.55151 1.53447 8.01368 
437 1 1 6.45653 1.76758 6.45087 
421 1 1 0.106749 1.62677 6.5885 
439 1 1 7.23877 1.82296 7.24601 
441 1 1 8.04222 3.34982 6.526 
442 1 1 1.02446 4.02497 6.57827 
444 1 1 7.98648 3.98587 7.35118 
46 1 1 2.59938 4.03773 0.158414 
69 1 1 3.25474 5.02958 0.0429642 
447 1 1 2.43451 3.19137 7.29056 
448 1 1 1.70332 3.8392 7.58863 
467 1 1 2.4918 4.65578 7.38956 
452 1 1 3.23929 3.94037 7.27776 
53 1 1 4.92227 3.21182 7.93699 
50 1 1 4.03076 3.97405 0.0465052 
450 1 1 3.96889 4.0049 6.54387 
453 1 1 4.71638 3.26254 6.54514 
451 1 1 4.04724 3.09181 7.35801 
471 1 1 3.92606 4.77866 7.3727 
456 1 1 4.69661 3.97882 7.3172 
54 1 1 5.529 4.11034 0.0707205 
473 1 1 4.72794 4.74412 6.341 
77 1 1 6.4438 4.61842 7.92444 
455 1 1 5.60491 3.20196 7.07359 
454 1 1 5.54707 4.04644 6.41606 
475 1 1 5.50291 4.76327 7.21703 
459 1 1 7.29253 3.10045 7.36377 
461 1 1 8.04717 4.87326 6.32722 
460 1 1 6.44056 3.82362 7.25175 
479 1 1 7.20198 4.70839 7.13833 
65 1 1 1.66831 4.84835 0.19292 
62 1 1 0.757313 5.71872 7.92686 
85 1 1 1.5763 6.37512 8.00794 
485 1 1 1.66589 6.26056 6.60751 
462 1 1 0.779605 5.57775 6.52654 
463 1 1 0.880251 4.78712 7.24705 
66 1 1 2.40445 5.70104 0.159182 
469 1 1 3.22376 4.74726 6.57446 
465 1 1 1.79011 4.679 6.45353 
468 1 1 1.57494 5.51764 7.31947 
466 1 1 2.49193 5.62471 6.55206 
470 1 1 4.06456 5.56714 6.49771 
70 1 1 3.96421 5.79852 8.06678 
472 1 1 3.19965 5.70296 7.27544 
476 1 1 4.98947 5.70749 7.49669 
74 1 1 5.94319 5.55386 8.07119 
474 1 1 5.68394 5.58692 6.34599 
495 1 1 5.6742 6.4644 7.22095 
477 1 1 6.41685 4.63089 6.44 
497 1 1 6.43855 6.37322 6.43796 
464 1 1 7.96394 5.61753 7.20282 
480 1 1 6.42736 5.60289 7.0807 
499 1 1 7.25798 5.69079 6.42022 
78 1 1 7.11696 6.61495 7.2288 
82 1 1 0.854231 7.2701 0.0970244 
405 1 1 1.39955 7.97496 6.53499 
482 1 1 0.872702 7.08528 6.3919 
483 1 1 0.645684 6.66645 7.34854 
481 1 1 7.9949 6.55912 6.4614 
487 1 1 2.35846 6.29169 7.37246 
489 1 1 3.27203 6.43284 6.57803 
488 1 1 1.51136 7.29115 7.47405 
486 1 1 2.36841 7.21766 6.72075 
492 1 1 3.32447 7.33414 7.2169 
93 1 1 4.87215 6.61603 0.00919676 
491 1 1 4.15487 6.36637 7.28996 
90 1 1 4.14908 7.31266 8.04705 
411 1 1 4.24188 8.04745 7.26814 
493 1 1 4.96521 6.39749 6.21489 
496 1 1 4.86047 7.21142 7.14507 
94 1 1 5.74243 7.32659 8.06665 
500 1 1 6.37308 7.25293 7.27523 
81 1 1 7.73842 6.28079 0.114809 
98 1 1 7.07487 7.37858 -0.0433435 
498 1 1 7.34349 7.35805 6.48941 
484 1 1 7.88451 7.24346 7.48002 
