ITEM: TIMESTEP
22000
ITEM: NUMBER OF ATOMS
500
ITEM: BOX BOUNDS pp pp pp
0 8.07388
0 8.07388
0 8.07388
ITEM: ATOMS id type mass x y z 
3 1 1 0.892783 0.0757328 0.743236 
102 1 1 0.803661 0.794903 1.5982 
8 1 1 1.63635 0.681911 0.854709 
106 1 1 2.39391 0.823221 1.68458 
12 1 1 3.28475 0.769807 1.03366 
16 1 1 4.96392 0.793796 0.690342 
113 1 1 5.08312 8.05759 1.41706 
110 1 1 4.05451 0.814333 1.74457 
133 1 1 4.82932 1.57347 1.71486 
10 1 1 4.11704 0.708093 0.177902 
15 1 1 5.70241 7.97381 0.669162 
14 1 1 5.52379 0.62161 8.01775 
20 1 1 6.38109 0.833776 0.79078 
114 1 1 5.68915 0.90102 1.63248 
4 1 1 7.96434 0.79733 0.87659 
19 1 1 7.12336 0.0578125 0.568216 
118 1 1 7.29501 0.944455 1.65244 
117 1 1 6.36865 8.08449 1.60666 
18 1 1 7.26961 0.872813 0.0345703 
23 1 1 0.873544 1.53991 0.828836 
122 1 1 0.863015 2.30033 1.6825 
43 1 1 0.794062 3.07315 0.80902 
24 1 1 0.0802027 2.41778 0.872492 
145 1 1 1.5681 3.22543 1.51322 
27 1 1 2.53679 1.52185 0.809083 
28 1 1 1.82116 2.32864 0.795125 
47 1 1 2.51912 3.21922 0.993512 
129 1 1 3.31249 1.60344 1.70253 
45 1 1 1.66328 3.42317 0.145311 
26 1 1 2.52725 2.40451 0.113674 
31 1 1 4.13955 1.52364 0.874601 
32 1 1 3.2816 2.35218 0.948165 
30 1 1 3.80542 2.30219 0.0375358 
36 1 1 4.74978 2.38515 0.989346 
130 1 1 3.95671 2.42674 1.73231 
35 1 1 5.65642 1.60097 0.813422 
40 1 1 6.4642 2.36729 0.857018 
137 1 1 6.45562 1.5415 1.64262 
157 1 1 6.62512 3.17994 1.57522 
37 1 1 6.51095 1.66067 0.074371 
57 1 1 6.3865 3.15903 0.0794791 
39 1 1 7.27227 1.5707 0.840184 
138 1 1 7.41036 2.28083 1.58227 
59 1 1 7.40275 3.14338 0.932557 
38 1 1 7.32149 2.42707 0.028861 
63 1 1 0.727613 4.93652 0.757679 
142 1 1 0.642295 4.24376 1.57337 
42 1 1 0.793409 3.97888 0.0169816 
61 1 1 0.0449189 4.76087 8.0291 
48 1 1 1.55701 4.10082 0.868395 
146 1 1 2.35243 4.03677 1.61801 
46 1 1 2.39772 4.0339 0.179335 
51 1 1 4.00733 3.30211 1.01662 
52 1 1 3.17621 4.07623 0.815224 
56 1 1 4.95613 4.02461 0.801479 
50 1 1 4.04369 3.9688 0.223469 
53 1 1 4.78444 3.2474 0.253579 
55 1 1 5.70295 3.21958 0.874626 
54 1 1 5.67238 4.11119 0.101542 
75 1 1 5.699 4.79926 0.902622 
154 1 1 5.70029 3.98892 1.62753 
173 1 1 4.75716 4.87292 1.50743 
73 1 1 4.87223 4.83594 0.0809114 
44 1 1 0.128272 4.01177 0.798956 
60 1 1 6.56465 4.00161 0.692403 
58 1 1 7.31246 3.94292 7.99902 
161 1 1 7.31292 4.68529 0.668712 
62 1 1 0.719112 5.70592 8.04048 
68 1 1 1.57605 5.75772 0.809637 
64 1 1 7.97969 5.5754 0.79794 
83 1 1 0.63271 6.43756 0.758842 
162 1 1 0.75426 5.63032 1.54929 
67 1 1 2.4213 4.86322 0.839052 
66 1 1 2.40518 5.702 0.0557828 
87 1 1 2.33132 6.57282 0.646906 
69 1 1 3.17778 4.79943 0.0228868 
71 1 1 4.03694 4.95187 0.787991 
72 1 1 3.36923 5.69071 0.74519 
70 1 1 4.26301 5.7692 0.120696 
89 1 1 3.25087 6.54352 7.99808 
91 1 1 4.11274 6.45024 0.837205 
76 1 1 4.93226 5.71966 0.842775 
74 1 1 5.69911 5.47476 0.0811827 
80 1 1 6.44787 5.61345 0.778333 
93 1 1 4.8343 6.62107 8.04181 
197 1 1 6.3493 6.397 1.66591 
97 1 1 6.44248 6.39443 0.0442428 
177 1 1 6.48126 4.77368 1.56658 
163 1 1 7.95224 4.93016 1.60118 
99 1 1 7.27802 6.35346 0.737229 
77 1 1 6.42308 4.78011 8.03768 
79 1 1 7.19248 5.52278 0.0208956 
84 1 1 7.82358 7.25722 0.69584 
82 1 1 0.658159 7.28398 8.08058 
88 1 1 1.55976 7.42722 0.729788 
182 1 1 0.717838 7.41963 1.47659 
7 1 1 2.5587 0.113244 0.79172 
5 1 1 1.60443 0.0868284 0.0303337 
85 1 1 1.47969 6.48143 8.04227 
92 1 1 3.30156 7.26727 0.841362 
105 1 1 1.4817 8.04037 1.58124 
11 1 1 4.06549 8.05024 0.921193 
190 1 1 4.05843 7.20316 1.68108 
109 1 1 3.32103 7.89136 1.77265 
189 1 1 3.32508 6.48611 1.54664 
95 1 1 5.71038 6.48902 0.755722 
96 1 1 4.75954 7.17153 1.03426 
194 1 1 5.68918 7.23973 1.53388 
94 1 1 5.60711 7.29742 7.99272 
100 1 1 6.47119 7.20136 0.705091 
98 1 1 7.14294 7.29568 8.03762 
198 1 1 7.12777 7.16431 1.55964 
108 1 1 1.57494 0.576805 2.38584 
125 1 1 1.61512 1.61653 1.52129 
103 1 1 0.724917 7.99153 2.26844 
202 1 1 0.94715 0.682444 3.13733 
107 1 1 2.4463 7.94517 2.33087 
112 1 1 3.20011 0.712698 2.39471 
206 1 1 2.24989 0.50469 3.09198 
210 1 1 3.89837 0.783236 3.13828 
116 1 1 4.82438 0.827069 2.61154 
233 1 1 4.80484 1.78594 3.28166 
120 1 1 6.35833 0.670149 2.45403 
115 1 1 5.66236 8.03162 2.49862 
214 1 1 5.70136 0.847645 3.23171 
104 1 1 8.06994 0.844321 2.37328 
218 1 1 7.15701 0.725633 2.98862 
121 1 1 0.0966103 1.57373 1.60815 
123 1 1 0.928937 1.55936 2.47518 
143 1 1 0.681066 3.45918 2.70598 
128 1 1 1.66476 2.37927 2.37638 
127 1 1 2.41187 1.48705 2.50644 
126 1 1 2.55194 2.41754 1.61727 
225 1 1 1.5973 1.53208 3.18099 
153 1 1 4.85948 3.28785 1.67508 
132 1 1 3.17609 2.26388 2.48905 
131 1 1 4.06056 1.56424 2.47612 
136 1 1 4.81006 2.47934 2.49644 
134 1 1 5.64951 2.47383 1.58551 
135 1 1 5.74902 1.65967 2.40185 
140 1 1 6.50998 2.45748 2.30778 
155 1 1 5.77326 3.23952 2.34316 
141 1 1 0.0798882 3.33715 1.72742 
139 1 1 7.32924 1.62151 2.44295 
124 1 1 0.159033 2.49306 2.38981 
159 1 1 7.27664 3.18312 2.3466 
241 1 1 7.92433 3.4299 3.30963 
148 1 1 1.55284 3.98433 2.28415 
144 1 1 7.90606 4.17027 2.36756 
265 1 1 1.59412 4.55612 3.33862 
147 1 1 2.57411 3.23296 2.52211 
152 1 1 3.17345 4.07513 2.60252 
246 1 1 2.47662 4.04271 3.56515 
149 1 1 3.29414 3.38551 1.69174 
150 1 1 4.03664 3.99544 1.78045 
151 1 1 3.8794 3.21006 2.52308 
171 1 1 3.99917 4.84921 2.42029 
156 1 1 4.90136 4.03797 2.404 
254 1 1 5.84412 3.93134 3.08402 
175 1 1 5.64818 4.83847 2.38507 
160 1 1 6.54516 4.01239 2.30506 
158 1 1 7.31051 4.02137 1.59361 
261 1 1 0.055861 4.7181 3.21428 
179 1 1 7.2208 4.94103 2.2646 
181 1 1 8.00021 6.48831 1.55954 
165 1 1 1.61536 4.9495 1.5584 
242 1 1 0.731623 4.96862 2.34571 
168 1 1 1.64183 5.52554 2.42169 
164 1 1 7.97625 5.71574 2.37159 
169 1 1 3.3491 4.85345 1.59686 
166 1 1 2.44162 5.68239 1.67802 
167 1 1 2.37328 4.64312 2.44479 
266 1 1 2.32087 5.50915 3.34038 
172 1 1 3.32266 5.5367 2.48092 
170 1 1 4.01331 5.78725 1.69346 
176 1 1 4.86258 5.45663 2.38806 
174 1 1 5.6828 5.53869 1.65136 
193 1 1 5.03517 6.33465 1.6381 
293 1 1 5.02218 6.30895 3.04131 
180 1 1 6.48677 5.70051 2.42455 
178 1 1 7.24602 5.6945 1.5864 
278 1 1 7.24557 5.56406 3.11925 
183 1 1 0.874614 6.27924 2.57767 
184 1 1 0.0455712 7.16545 2.46958 
188 1 1 1.586 7.35084 2.53713 
282 1 1 0.824775 7.17233 3.32252 
185 1 1 1.37863 6.63368 1.4929 
186 1 1 2.41107 7.21122 1.55155 
187 1 1 2.54802 6.38825 2.30295 
286 1 1 2.38122 7.17695 3.25256 
111 1 1 4.1298 7.97047 2.35903 
191 1 1 4.07304 6.40849 2.56307 
289 1 1 3.20244 6.48488 3.26679 
192 1 1 3.20977 7.15202 2.50626 
209 1 1 3.22151 7.98684 3.10709 
195 1 1 5.72561 6.4796 2.38564 
196 1 1 4.99217 7.26847 2.34934 
200 1 1 6.41975 7.16821 2.42186 
217 1 1 6.36049 0.0344605 3.4515 
119 1 1 7.29021 7.77014 2.38555 
101 1 1 7.90206 0.065152 1.63497 
199 1 1 7.2688 6.46975 2.55049 
298 1 1 7.1964 7.30742 3.32089 
205 1 1 1.49718 7.96564 3.27674 
208 1 1 1.60563 0.566906 3.97675 
302 1 1 0.917476 0.778329 4.74677 
223 1 1 0.882977 1.47592 3.91252 
203 1 1 0.702207 8.04485 4.10422 
306 1 1 2.41891 0.825787 4.73759 
207 1 1 2.49501 7.9597 3.91811 
227 1 1 2.34731 1.61552 4.00068 
229 1 1 3.07584 1.45173 3.35654 
212 1 1 3.22145 0.699591 4.01278 
231 1 1 4.06152 1.57881 3.91548 
211 1 1 3.89744 8.00507 3.94312 
333 1 1 4.80822 1.68675 4.60554 
216 1 1 4.7745 0.692789 3.91549 
220 1 1 6.41585 0.851181 4.17422 
237 1 1 6.54562 1.72445 3.13016 
235 1 1 5.67138 1.5307 4.07255 
314 1 1 5.56122 0.833422 4.73162 
337 1 1 6.43915 1.71565 4.84579 
221 1 1 0.0909775 1.55361 3.0711 
204 1 1 8.06122 0.999727 4.15019 
239 1 1 7.14449 1.68531 3.99837 
317 1 1 6.38114 0.000611307 4.87673 
222 1 1 0.742347 2.44444 3.16662 
228 1 1 1.54978 2.53228 3.93944 
322 1 1 0.870814 2.33982 4.76283 
226 1 1 2.31731 2.38838 3.26327 
326 1 1 2.34758 2.33625 4.73906 
349 1 1 3.15283 3.49055 4.98653 
247 1 1 2.3824 3.28701 4.3383 
232 1 1 3.13001 2.33509 3.91635 
230 1 1 4.00131 2.38645 3.24298 
236 1 1 4.95333 2.54005 3.9992 
249 1 1 3.24894 3.15946 3.33208 
234 1 1 5.77443 2.50024 3.1123 
334 1 1 5.67244 2.43162 4.9536 
257 1 1 6.55377 3.24208 3.13817 
255 1 1 5.71568 3.1491 4.10933 
240 1 1 6.44544 2.37467 4.02031 
224 1 1 0.0929802 2.3283 4.02205 
238 1 1 7.24096 2.42717 3.19052 
259 1 1 7.21468 3.27854 4.10899 
321 1 1 0.0265753 1.74416 4.82511 
341 1 1 0.234638 3.14543 4.80356 
244 1 1 0.719018 4.09052 3.50715 
243 1 1 0.802123 3.21009 3.98179 
245 1 1 1.62413 3.28697 3.25155 
248 1 1 1.47133 3.98121 4.15518 
342 1 1 0.935298 4.01287 5.0281 
346 1 1 2.38034 4.12715 4.98376 
252 1 1 3.39263 4.03499 4.03449 
250 1 1 4.04017 3.94406 3.1274 
253 1 1 4.95635 3.26333 3.13966 
251 1 1 4.11353 3.33464 4.0245 
273 1 1 4.90399 4.88048 3.19259 
271 1 1 4.02558 4.91251 3.9953 
277 1 1 6.47483 4.82124 3.06058 
256 1 1 4.83797 4.00094 3.85041 
260 1 1 6.34962 3.96523 4.07101 
258 1 1 7.14207 4.08529 3.17311 
358 1 1 8.00582 3.96802 4.07338 
279 1 1 7.27143 4.71061 4.10957 
379 1 1 7.28442 3.98638 4.94527 
262 1 1 0.940073 5.49961 3.20288 
263 1 1 1.0058 4.90415 4.10222 
269 1 1 3.15131 4.91298 3.34943 
267 1 1 2.26676 4.88727 4.18813 
268 1 1 1.55111 5.77305 4.15515 
272 1 1 3.22224 5.62816 4.10837 
366 1 1 2.46639 5.82508 4.87392 
369 1 1 3.06958 4.93125 4.84755 
270 1 1 4.18345 5.68231 3.22439 
291 1 1 4.00367 6.40701 3.85124 
370 1 1 4.01009 5.54212 4.84634 
373 1 1 5.0726 4.99335 4.96288 
275 1 1 5.6157 4.81247 4.05325 
274 1 1 5.73934 5.628 3.22738 
276 1 1 4.92631 5.7502 4.05912 
295 1 1 5.67206 6.3791 3.91816 
297 1 1 6.44825 6.50744 3.2 
280 1 1 6.53227 5.51577 3.96053 
264 1 1 -0.00430128 5.55447 3.90472 
283 1 1 0.748854 6.42089 4.1689 
284 1 1 8.00675 7.29913 4.18673 
382 1 1 0.715199 7.33285 4.91218 
285 1 1 1.71984 6.36875 3.08786 
287 1 1 2.53321 6.4656 4.07243 
288 1 1 1.53703 7.30962 4.06196 
309 1 1 3.18878 0.0485487 4.83134 
292 1 1 3.33822 7.18347 3.96566 
290 1 1 4.00293 7.22525 3.19813 
294 1 1 5.65177 7.19654 3.18198 
296 1 1 4.70564 6.99821 3.88884 
213 1 1 4.91072 8.01218 3.30177 
215 1 1 5.57942 7.89475 4.09088 
281 1 1 8.07674 6.36114 3.25263 
301 1 1 7.95096 0.010388 4.8152 
201 1 1 7.99159 7.92923 3.35691 
219 1 1 7.31756 0.136863 3.97812 
299 1 1 7.21782 6.42161 4.05223 
300 1 1 6.48939 7.28672 4.08374 
308 1 1 1.56637 0.737758 5.63159 
425 1 1 1.60502 1.70267 6.46609 
402 1 1 0.680811 0.734922 6.41304 
401 1 1 8.03182 0.0205454 6.35109 
325 1 1 1.60474 1.49442 4.79815 
406 1 1 2.34698 0.849078 6.40678 
405 1 1 1.56247 0.0011004 6.4909 
329 1 1 3.26329 1.55427 4.73699 
312 1 1 3.17732 0.881888 5.54117 
310 1 1 4.10706 0.777039 4.63308 
316 1 1 4.70282 0.721401 5.73806 
311 1 1 3.97935 8.01782 5.63408 
320 1 1 6.43719 0.932572 5.80085 
335 1 1 5.67657 1.631 5.68611 
413 1 1 4.89051 8.00485 6.4423 
304 1 1 8.01441 0.718785 5.54899 
318 1 1 7.21777 0.769704 4.87947 
319 1 1 7.15654 0.0542226 5.65627 
323 1 1 0.829088 1.49821 5.57341 
343 1 1 0.818993 3.15147 5.6277 
422 1 1 0.722085 2.27112 6.58872 
445 1 1 1.66312 3.17792 6.50925 
345 1 1 1.55044 3.18752 4.93347 
327 1 1 2.40285 1.59041 5.64267 
328 1 1 1.73239 2.43554 5.81268 
347 1 1 2.37599 3.25944 5.67441 
426 1 1 2.58162 2.53985 6.36023 
332 1 1 3.21024 2.50159 5.44029 
330 1 1 3.95464 2.50861 4.64609 
331 1 1 4.03801 1.76381 5.51841 
351 1 1 4.22104 3.51098 5.89238 
336 1 1 4.75003 2.60673 5.76936 
340 1 1 6.5964 2.47637 5.56676 
339 1 1 7.21622 1.53475 5.65241 
324 1 1 0.0635616 2.41195 5.6578 
338 1 1 7.43617 2.50762 4.87596 
438 1 1 7.37122 2.42217 6.42477 
348 1 1 1.66914 4.11012 5.73499 
446 1 1 2.58519 4.02367 6.40809 
352 1 1 3.33616 4.07594 5.791 
367 1 1 2.61053 5.03237 5.82386 
469 1 1 3.29244 4.93597 6.59641 
350 1 1 4.22886 4.27163 4.87926 
450 1 1 4.1931 4.28632 6.78064 
453 1 1 4.77489 3.27048 6.62064 
353 1 1 4.87872 3.37224 5.09079 
355 1 1 5.73414 3.15647 5.77378 
356 1 1 4.94288 4.18047 5.71811 
354 1 1 5.55003 4.02901 4.71545 
357 1 1 6.44352 3.19646 4.90584 
360 1 1 6.38487 3.98632 5.619 
457 1 1 6.49121 3.33071 6.5135 
359 1 1 7.36651 3.2407 5.6969 
344 1 1 8.04732 4.07957 5.5844 
377 1 1 6.45757 4.67279 4.84731 
478 1 1 7.108 4.73049 5.79702 
441 1 1 0.231139 3.25131 6.45491 
458 1 1 7.23933 3.98678 6.46807 
362 1 1 0.913958 5.66129 5.06484 
363 1 1 0.860895 4.94369 5.73963 
383 1 1 0.544154 6.58684 5.72577 
368 1 1 1.74086 5.91047 5.77559 
381 1 1 0.0145762 6.2059 4.90318 
365 1 1 1.78253 5.02653 5.07513 
372 1 1 3.43316 5.49302 5.72109 
371 1 1 4.21429 4.92409 5.71828 
470 1 1 4.16449 5.54097 6.59978 
376 1 1 4.84849 5.81529 5.6119 
391 1 1 3.96575 6.36056 5.72224 
375 1 1 5.94772 4.89076 5.78416 
374 1 1 5.66952 5.73792 4.78839 
395 1 1 5.65456 6.48471 5.6192 
493 1 1 4.75768 6.34432 6.44346 
361 1 1 0.078648 4.78655 4.89055 
364 1 1 8.05864 5.57312 5.79455 
380 1 1 6.39395 5.73105 5.42353 
378 1 1 7.17636 5.60625 4.80485 
303 1 1 0.747688 8.05146 5.70379 
482 1 1 0.575807 7.26504 6.54425 
385 1 1 1.50623 6.64898 4.94357 
386 1 1 2.24721 7.32471 4.88753 
387 1 1 2.71288 6.30635 5.77242 
305 1 1 1.54242 8.06499 4.83055 
307 1 1 2.58656 0.111597 5.8031 
388 1 1 1.50746 7.35171 5.85981 
389 1 1 3.38231 6.34221 4.83299 
390 1 1 4.01191 7.24151 4.8297 
392 1 1 3.34041 7.17055 5.76489 
393 1 1 4.69761 6.45696 4.8291 
394 1 1 5.67385 7.25429 4.85706 
315 1 1 5.64267 0.0713192 5.59596 
396 1 1 4.8194 7.21239 5.58034 
313 1 1 4.71718 0.0544413 4.81225 
398 1 1 7.143 7.20566 4.89128 
397 1 1 6.31757 6.5267 4.78479 
400 1 1 6.42226 7.31957 5.69966 
399 1 1 7.23604 6.41401 5.60901 
384 1 1 7.89474 7.3645 5.54582 
2 1 1 0.776721 0.816272 0.0384603 
403 1 1 0.790126 0.0307154 7.22855 
421 1 1 8.03882 1.49842 6.57096 
423 1 1 0.934873 1.5617 7.35789 
9 1 1 3.15424 8.05934 -0.00149204 
6 1 1 2.3936 0.828379 7.92637 
408 1 1 1.54427 0.786228 7.2537 
407 1 1 2.31372 0.0815838 7.22704 
412 1 1 3.20869 1.09947 7.22796 
29 1 1 3.2911 1.44036 0.161643 
410 1 1 4.05086 1.08679 6.4022 
416 1 1 4.97233 0.894974 7.26617 
409 1 1 3.42467 0.173421 6.43815 
411 1 1 4.06797 8.03738 7.32786 
33 1 1 4.65218 1.61138 7.91578 
437 1 1 6.42585 1.78665 6.49092 
414 1 1 5.69924 0.876462 6.58207 
417 1 1 6.44533 8.06783 6.36551 
420 1 1 6.58029 1.03337 7.22613 
415 1 1 5.74136 8.02052 7.09654 
17 1 1 6.45582 0.290248 7.94656 
404 1 1 7.99164 0.748052 7.26191 
418 1 1 7.31456 0.841895 6.48349 
419 1 1 7.15045 0.141466 7.20903 
22 1 1 0.899271 2.36558 0.121287 
443 1 1 0.842002 3.12462 7.3517 
428 1 1 1.77298 2.54876 7.54839 
25 1 1 1.70028 1.55262 0.0295357 
427 1 1 2.33845 1.62232 7.24968 
432 1 1 3.17988 2.33111 7.29486 
429 1 1 3.12805 1.64787 6.38375 
430 1 1 3.95071 2.45988 6.44602 
431 1 1 3.99654 1.76715 7.1364 
49 1 1 3.18461 3.27693 0.12715 
34 1 1 5.62747 2.5138 0.106141 
434 1 1 5.70577 2.64033 6.6804 
433 1 1 4.90729 1.8158 6.59554 
436 1 1 4.75626 2.702 7.40599 
435 1 1 5.76266 1.66396 7.18651 
440 1 1 6.57347 2.46185 7.28536 
21 1 1 7.94646 1.68849 0.0990743 
439 1 1 7.37398 1.74461 7.26629 
41 1 1 0.0105899 3.21766 8.06001 
424 1 1 0.132763 2.3413 7.35704 
442 1 1 0.765304 4.02473 6.45402 
448 1 1 1.51682 4.23042 7.38061 
461 1 1 7.98672 4.77681 6.58382 
465 1 1 1.61037 4.96163 6.41599 
447 1 1 2.48198 3.33669 7.36727 
449 1 1 3.19491 3.25502 6.61851 
467 1 1 2.37408 4.87764 7.39621 
451 1 1 3.95754 3.32146 7.48491 
452 1 1 3.26373 4.14188 7.35884 
456 1 1 4.78707 4.00614 7.58132 
473 1 1 5.01275 5.00264 6.32279 
455 1 1 5.56193 3.31402 7.47197 
454 1 1 5.58775 4.124 6.64275 
475 1 1 5.71602 4.88166 7.2042 
460 1 1 6.38855 3.88329 7.30918 
459 1 1 7.49332 3.14734 7.14199 
444 1 1 0.0351069 3.96037 7.2647 
477 1 1 6.55217 4.80544 6.56859 
462 1 1 0.869577 5.77389 6.38552 
481 1 1 8.05277 6.33646 6.58132 
463 1 1 0.741445 4.97595 7.118 
464 1 1 7.97352 5.60259 7.27397 
65 1 1 1.53113 4.91142 0.104243 
466 1 1 2.44734 5.6576 6.56234 
468 1 1 1.57986 5.65612 7.30962 
472 1 1 3.15603 5.65708 7.35573 
471 1 1 4.0609 4.93102 7.56969 
491 1 1 4.11202 6.29334 7.29057 
476 1 1 4.92943 5.53695 7.32491 
474 1 1 5.69888 5.76566 6.44764 
480 1 1 6.49556 5.64374 7.31319 
495 1 1 5.56657 6.50071 7.33637 
499 1 1 7.07088 5.6678 6.47017 
479 1 1 7.20795 4.7841 7.43008 
78 1 1 7.22594 6.3785 7.25386 
497 1 1 6.5286 6.53191 6.30691 
81 1 1 7.9287 6.51663 8.02807 
483 1 1 0.805189 6.56786 7.36255 
484 1 1 7.9547 7.29246 7.23116 
488 1 1 1.59989 7.38433 7.4322 
86 1 1 2.4003 7.41053 8.06402 
485 1 1 1.50525 6.68729 6.61193 
487 1 1 2.36765 6.38141 7.35052 
486 1 1 2.36936 7.27842 6.46206 
90 1 1 4.05079 7.32178 0.0917754 
13 1 1 4.84699 7.90909 0.0455648 
489 1 1 3.21494 6.39423 6.63178 
490 1 1 3.84365 7.08493 6.67577 
492 1 1 3.00106 7.34582 7.20964 
496 1 1 4.75426 7.19293 7.15658 
494 1 1 5.58321 7.10659 6.49943 
1 1 1 7.95235 0.0385469 0.0131044 
498 1 1 7.34783 7.32532 6.35462 
500 1 1 6.4805 7.29513 7.20556 
