ITEM: TIMESTEP
15000
ITEM: NUMBER OF ATOMS
500
ITEM: BOX BOUNDS pp pp pp
0 8.07388
0 8.07388
0 8.07388
ITEM: ATOMS id type mass x y z 
23 1 1 0.811253 1.77011 0.738393 
4 1 1 8.04287 0.581018 0.940579 
121 1 1 0.0240025 1.51355 1.56469 
21 1 1 0.0684449 1.55111 0.181631 
5 1 1 1.6847 8.0332 8.00694 
8 1 1 1.60043 0.888487 0.831374 
12 1 1 3.2426 0.927281 0.705279 
27 1 1 2.4447 1.56748 0.951881 
7 1 1 2.35225 0.0333599 0.95367 
125 1 1 1.55026 1.58548 1.522 
11 1 1 4.08628 0.23877 0.839266 
129 1 1 3.33958 1.5928 1.77842 
10 1 1 4.10771 0.924988 8.02195 
16 1 1 4.808 1.00376 0.873921 
20 1 1 6.30595 0.838248 0.925896 
35 1 1 5.6562 1.6367 0.886341 
15 1 1 5.5406 0.124063 0.965969 
14 1 1 5.61793 0.972738 8.02682 
118 1 1 7.36035 0.724041 1.64792 
37 1 1 6.39263 1.56686 0.139467 
39 1 1 7.26479 1.6061 0.903345 
117 1 1 6.47114 7.99241 1.73588 
18 1 1 7.193 0.797251 0.0492572 
24 1 1 0.0802007 2.58905 0.861202 
122 1 1 0.794248 2.37648 1.82325 
43 1 1 0.801469 3.23434 0.831777 
29 1 1 3.19193 1.50369 7.94251 
28 1 1 1.74929 2.48433 0.746928 
26 1 1 2.43433 2.50255 7.86536 
126 1 1 2.40588 2.43375 1.5773 
32 1 1 3.20783 2.38592 0.869377 
31 1 1 4.03839 1.55492 0.821112 
30 1 1 4.06116 2.36361 0.184072 
36 1 1 4.88825 2.42718 0.898558 
55 1 1 5.71217 3.49826 0.65357 
134 1 1 5.70227 2.47461 1.57918 
40 1 1 6.38603 2.41133 0.81665 
137 1 1 6.46145 1.59194 1.67706 
138 1 1 7.08091 2.51776 1.65576 
59 1 1 7.19218 3.17093 0.815315 
141 1 1 0.0528084 3.20592 1.63648 
38 1 1 7.25142 2.39325 0.0481296 
48 1 1 1.6319 4.11087 0.777452 
42 1 1 0.850741 4.05473 0.150032 
45 1 1 1.71258 3.25189 8.05042 
142 1 1 0.868187 4.06132 1.55728 
165 1 1 1.65882 4.93035 1.60217 
163 1 1 0.0230808 4.8633 1.59296 
47 1 1 2.48696 3.24361 0.873473 
145 1 1 1.63307 3.25876 1.5921 
146 1 1 2.55758 4.09465 1.68573 
51 1 1 4.1424 3.21145 0.996486 
52 1 1 3.31065 3.9536 0.773289 
69 1 1 3.20475 4.96238 8.00083 
71 1 1 3.93511 4.70266 0.916513 
50 1 1 4.07669 4.06392 8.07408 
150 1 1 4.09248 4.06542 1.80058 
56 1 1 4.83216 4.0321 0.687272 
75 1 1 5.68617 4.99841 0.887521 
173 1 1 4.89076 4.82076 1.5282 
60 1 1 6.49973 4.25783 0.942046 
154 1 1 5.75936 4.11897 1.79161 
53 1 1 4.67264 3.26073 0.0359581 
54 1 1 5.64154 4.29454 8.02288 
44 1 1 0.0376155 3.96936 0.691666 
161 1 1 7.24376 4.98159 0.870493 
77 1 1 6.63866 4.85033 0.0837922 
58 1 1 7.33696 4.01128 0.0236883 
63 1 1 0.917388 4.91269 0.857865 
162 1 1 0.792065 5.59383 1.65097 
68 1 1 1.92204 5.66649 0.896358 
67 1 1 2.65575 4.80905 0.874086 
66 1 1 2.66237 5.72168 0.0183432 
89 1 1 3.43981 6.64794 8.07368 
72 1 1 3.37523 5.62976 0.925239 
189 1 1 3.45778 6.60183 1.50317 
70 1 1 4.0341 5.70318 8.0784 
93 1 1 4.84719 6.43627 7.93622 
76 1 1 4.92007 5.74193 0.735195 
80 1 1 6.39672 5.80068 0.929018 
97 1 1 6.32405 6.44199 8.04017 
73 1 1 4.71822 4.99132 0.135353 
64 1 1 7.98608 5.74892 0.827724 
99 1 1 7.18612 6.50862 0.997871 
79 1 1 7.08498 5.72396 0.102185 
181 1 1 7.97314 6.44188 1.75395 
178 1 1 7.21465 5.69 1.58884 
83 1 1 0.971359 6.33343 0.796781 
85 1 1 1.72624 6.357 0.0469349 
3 1 1 0.93959 8.02591 0.719636 
82 1 1 0.830232 7.13187 0.015757 
87 1 1 2.67615 6.46972 0.71665 
88 1 1 1.76921 7.26442 0.715851 
91 1 1 4.17715 6.50468 0.692607 
92 1 1 3.27647 7.29527 0.753966 
90 1 1 4.27784 7.33773 0.101755 
13 1 1 4.92606 0.219421 0.134376 
95 1 1 5.65254 6.56695 0.810081 
96 1 1 4.90513 7.45242 0.87914 
17 1 1 6.37312 0.0649643 0.171822 
100 1 1 6.32214 7.31693 0.902545 
94 1 1 5.58259 7.37514 0.06159 
19 1 1 7.17355 -0.00643221 0.952935 
84 1 1 0.158198 7.16322 0.945005 
101 1 1 0.0880165 7.84583 1.72179 
102 1 1 0.752103 0.77805 1.6308 
202 1 1 0.939145 0.800352 3.2089 
108 1 1 1.76952 0.933376 2.54088 
104 1 1 0.195184 0.710581 2.453 
106 1 1 2.49553 0.977447 1.71771 
109 1 1 3.21062 0.175225 1.60175 
107 1 1 2.36357 0.13875 2.35088 
225 1 1 1.58959 1.55708 3.33129 
110 1 1 4.07498 0.958709 1.7632 
112 1 1 3.2752 0.822238 2.53928 
111 1 1 3.8548 0.026752 2.37946 
210 1 1 4.03595 0.815431 3.38597 
213 1 1 4.74785 8.05053 3.3179 
113 1 1 4.89775 0.201432 1.70285 
114 1 1 5.55226 0.976574 1.71261 
116 1 1 4.68482 0.819961 2.60346 
115 1 1 5.62704 8.01167 2.45786 
120 1 1 6.47541 0.753409 2.39634 
139 1 1 7.27277 1.53616 2.39034 
221 1 1 0.055501 1.53949 3.21161 
123 1 1 0.967154 1.51375 2.39703 
143 1 1 0.768211 3.30819 2.44425 
222 1 1 0.63965 2.3276 3.34995 
128 1 1 1.42177 2.51261 2.63663 
127 1 1 2.17622 1.81478 2.38218 
132 1 1 3.11505 2.41938 2.45692 
149 1 1 3.3757 3.19974 1.65487 
131 1 1 3.95325 1.72412 2.54989 
130 1 1 3.99794 2.47026 1.59331 
151 1 1 3.94863 3.24058 2.47911 
153 1 1 5.07841 3.25174 1.49813 
133 1 1 4.85834 1.70731 1.95589 
135 1 1 5.80784 1.64679 2.5296 
136 1 1 5.00349 2.71921 2.40652 
155 1 1 5.83514 3.30949 2.44996 
157 1 1 6.4504 3.29717 1.48749 
124 1 1 8.00239 2.40634 2.35545 
140 1 1 6.60409 2.21932 2.56065 
238 1 1 7.36581 2.19432 3.38886 
159 1 1 7.40179 3.29333 2.42993 
144 1 1 8.01474 4.07317 2.48329 
242 1 1 0.746023 4.81438 2.43526 
245 1 1 1.58136 3.22255 3.3016 
244 1 1 0.681334 3.93372 3.19014 
241 1 1 7.9974 3.05162 3.2378 
147 1 1 2.43863 3.14006 2.36676 
148 1 1 1.74048 3.88075 2.60737 
167 1 1 2.53901 4.77528 2.55688 
269 1 1 3.3734 4.78193 3.25394 
169 1 1 3.27036 4.92759 1.79304 
152 1 1 3.26982 4.00687 2.47399 
156 1 1 4.9256 3.79275 2.43532 
273 1 1 4.82805 4.74224 3.23576 
175 1 1 5.56979 4.85217 2.41856 
177 1 1 6.4081 5.0352 1.59827 
254 1 1 5.52731 3.98745 3.15157 
158 1 1 7.48619 4.03112 1.55595 
160 1 1 6.58014 3.90342 2.3403 
179 1 1 7.27276 4.74224 2.30855 
277 1 1 6.38177 4.82709 3.13563 
164 1 1 8.05168 5.45498 2.37386 
262 1 1 0.772496 5.62884 3.15577 
168 1 1 1.7453 5.56248 2.40483 
281 1 1 0.0734512 6.30637 3.06689 
166 1 1 2.60822 5.70166 1.67985 
265 1 1 1.60407 4.91678 3.19508 
187 1 1 2.43667 6.56914 2.47854 
266 1 1 2.31218 5.56271 3.43046 
171 1 1 4.08142 4.87523 2.3851 
193 1 1 4.80291 6.55751 1.56808 
172 1 1 3.05391 5.67082 2.61991 
170 1 1 4.03228 5.68383 1.75316 
176 1 1 4.80496 5.66922 2.46434 
191 1 1 4.11343 6.48751 2.47881 
174 1 1 5.54485 5.75515 1.50407 
274 1 1 5.4487 5.63049 3.22757 
180 1 1 6.27233 5.54947 2.49924 
199 1 1 7.18122 6.29463 2.46628 
278 1 1 7.15562 5.4826 3.25419 
185 1 1 1.76706 6.58125 1.57987 
182 1 1 0.926692 7.16726 1.59376 
183 1 1 0.93014 6.37419 2.25922 
103 1 1 0.78781 7.94475 2.55377 
282 1 1 0.849636 7.16901 3.17102 
105 1 1 1.53081 0.0163729 1.65843 
188 1 1 1.67391 7.25284 2.52041 
186 1 1 2.63119 7.22643 1.53628 
192 1 1 3.31634 7.30252 2.40234 
205 1 1 1.65583 7.99881 3.40845 
190 1 1 4.03159 7.37554 1.59838 
196 1 1 4.96195 7.29193 2.4144 
289 1 1 3.07071 6.40257 3.37164 
290 1 1 3.9638 7.22384 3.23683 
195 1 1 5.63866 6.49887 2.39354 
194 1 1 5.66313 7.3404 1.62899 
293 1 1 4.80499 6.45663 3.25556 
294 1 1 5.60984 7.11189 3.25077 
119 1 1 7.32571 0.0904101 2.38569 
184 1 1 7.99838 7.13676 2.47328 
197 1 1 6.46044 6.5026 1.72292 
200 1 1 6.35128 7.16541 2.56204 
198 1 1 7.28182 7.24268 1.67109 
223 1 1 0.849289 1.63786 4.09697 
321 1 1 0.0347234 1.53384 4.94182 
208 1 1 1.50616 0.868617 4.07407 
204 1 1 0.0997398 0.756381 3.94911 
206 1 1 2.35158 0.815543 3.29314 
209 1 1 3.22649 8.01568 3.28497 
229 1 1 3.01116 1.61097 3.1225 
212 1 1 3.03924 0.816438 4.06745 
211 1 1 4.00697 8.06508 4.12954 
310 1 1 4.07933 0.791141 4.85631 
231 1 1 3.89923 1.55006 4.21393 
313 1 1 4.9313 0.099519 4.87214 
214 1 1 5.64482 0.867886 3.27232 
216 1 1 4.78596 0.851943 4.02011 
314 1 1 5.62931 0.827804 4.84248 
235 1 1 5.58812 1.57586 4.0516 
220 1 1 6.5317 0.616249 4.0172 
218 1 1 7.34954 0.833746 3.20903 
239 1 1 7.32423 1.40288 4.14812 
325 1 1 1.46458 1.7243 4.91082 
228 1 1 1.54992 2.39796 4.14034 
224 1 1 8.05289 2.42949 4.24479 
322 1 1 0.785449 2.54045 4.85573 
226 1 1 2.28685 2.41841 3.28922 
227 1 1 2.32153 1.57171 4.09702 
247 1 1 2.39884 3.1753 3.96373 
249 1 1 3.10253 3.20342 3.2371 
232 1 1 3.11512 2.25123 4.01982 
233 1 1 4.83006 1.60098 3.21229 
333 1 1 4.89294 1.79531 4.80054 
230 1 1 3.98125 2.26338 3.35144 
251 1 1 4.09033 3.08628 4.20629 
236 1 1 4.94273 2.29 3.8895 
253 1 1 4.76752 3.24381 3.3131 
234 1 1 5.84919 2.31503 3.26221 
255 1 1 5.73719 3.37927 4.08165 
240 1 1 6.62673 2.27578 4.1734 
334 1 1 5.65504 2.42857 4.79577 
237 1 1 6.51795 1.44253 3.4155 
257 1 1 6.77843 3.11915 3.29169 
259 1 1 7.39153 3.26602 4.17627 
243 1 1 0.604922 3.33952 4.07965 
248 1 1 1.59934 3.92079 4.01122 
358 1 1 7.90402 4.09778 4.1016 
263 1 1 0.61141 4.81942 3.89423 
361 1 1 7.8768 4.84624 4.89523 
365 1 1 1.57195 4.63217 4.80616 
246 1 1 2.44232 4.10193 3.31988 
252 1 1 3.39125 3.96732 3.98336 
250 1 1 4.10714 3.99445 3.16771 
350 1 1 3.90537 3.9663 4.84884 
256 1 1 4.83579 3.9852 4.06204 
275 1 1 5.8328 4.69182 4.04366 
354 1 1 5.82266 4.00974 4.84739 
261 1 1 7.93209 4.8114 3.23628 
260 1 1 6.61659 3.9009 4.06381 
258 1 1 7.25916 4.03787 3.24645 
279 1 1 7.12878 4.8117 4.00603 
362 1 1 0.823695 5.3498 4.73059 
268 1 1 1.73651 5.69094 4.38266 
285 1 1 1.62086 6.31345 3.15398 
283 1 1 0.93179 6.2885 3.96347 
385 1 1 1.35148 6.44027 5.07482 
267 1 1 2.40118 4.85461 4.11802 
272 1 1 3.09248 5.62419 4.1983 
366 1 1 2.51824 5.63759 4.9532 
271 1 1 4.03198 4.83338 4.12115 
373 1 1 4.88818 4.82403 4.70854 
270 1 1 3.952 5.64272 3.34809 
276 1 1 4.74844 5.59064 3.97168 
295 1 1 5.57339 6.30134 4.15847 
280 1 1 6.25784 5.55745 3.95231 
264 1 1 7.96944 5.63418 3.90163 
299 1 1 7.20921 6.29795 4.04645 
378 1 1 7.21138 5.57401 4.93231 
201 1 1 8.00149 8.04056 3.27534 
203 1 1 0.753712 8.00351 4.20472 
288 1 1 1.39806 7.2033 4.12728 
284 1 1 0.0514881 6.96905 3.83366 
286 1 1 2.52827 7.33664 3.20796 
309 1 1 3.14299 0.0240535 4.82382 
207 1 1 2.45636 7.88202 4.197 
287 1 1 2.31668 6.52204 4.12991 
386 1 1 2.27408 7.12507 4.92453 
291 1 1 4.1297 6.41469 4.04365 
292 1 1 3.27929 7.30592 4.10116 
390 1 1 4.16947 7.19009 4.68739 
297 1 1 6.42512 6.19971 3.17017 
296 1 1 4.92447 7.29269 3.98324 
215 1 1 5.55965 0.106575 4.07727 
300 1 1 6.31208 7.39036 3.93658 
298 1 1 7.18666 7.22943 3.24736 
219 1 1 7.35506 7.96744 4.09405 
217 1 1 6.38488 -0.0149722 3.17956 
398 1 1 7.43537 7.14618 4.67062 
302 1 1 0.82669 0.868402 4.87307 
308 1 1 1.42274 0.63952 5.74704 
323 1 1 0.860212 1.80087 5.74673 
304 1 1 0.229757 0.948702 5.77646 
405 1 1 1.66652 7.97166 6.73137 
306 1 1 2.21376 0.875264 4.91375 
312 1 1 3.26748 0.713556 5.53026 
327 1 1 2.37979 1.69458 5.70266 
429 1 1 3.25463 1.53683 6.48288 
311 1 1 4.17077 7.87869 5.55794 
317 1 1 6.41265 8.02703 4.83783 
316 1 1 4.88627 0.771656 5.7552 
320 1 1 6.44734 0.752668 5.66945 
318 1 1 7.20058 0.71799 4.86779 
418 1 1 7.37434 0.726972 6.32093 
319 1 1 7.14477 8.0293 5.58141 
328 1 1 1.64277 2.55962 5.68729 
422 1 1 0.682152 2.71446 6.37973 
324 1 1 0.0780592 2.32077 5.68003 
343 1 1 0.834386 3.28476 5.56635 
345 1 1 1.64742 3.22566 4.82785 
329 1 1 3.06852 1.61899 4.93366 
326 1 1 2.37825 2.38128 4.96374 
332 1 1 3.21614 2.28195 5.77543 
347 1 1 2.44645 3.22066 5.49542 
330 1 1 3.91922 2.42088 4.93654 
331 1 1 3.99675 1.50296 5.61648 
349 1 1 3.17311 3.0686 4.68928 
351 1 1 3.85018 3.18834 5.54622 
337 1 1 6.39775 1.47802 4.90129 
335 1 1 5.64709 1.61703 5.47163 
336 1 1 4.64852 2.49672 5.58252 
340 1 1 6.51936 2.26617 5.65377 
355 1 1 5.70788 3.30235 5.52994 
339 1 1 7.27576 1.49481 5.57052 
338 1 1 7.21383 2.3967 4.97501 
359 1 1 7.01112 3.33838 5.64327 
437 1 1 6.41917 1.45093 6.40207 
342 1 1 0.683286 4.15741 4.77661 
348 1 1 1.69905 3.91673 5.6118 
344 1 1 7.98715 4.07947 5.67964 
442 1 1 0.748307 3.92732 6.36307 
346 1 1 2.50217 3.96696 4.6709 
369 1 1 3.18473 4.8433 4.81024 
445 1 1 1.69959 3.28725 6.57252 
352 1 1 3.21526 3.97288 5.56505 
371 1 1 4.07214 4.72631 5.60456 
450 1 1 3.88532 4.02269 6.40368 
469 1 1 3.34343 4.8768 6.33717 
353 1 1 4.82218 3.21291 4.86613 
356 1 1 4.94739 4.02361 5.5299 
454 1 1 5.60933 4.16818 6.46064 
457 1 1 6.39682 3.22988 6.40489 
360 1 1 6.47226 4.14916 5.78406 
357 1 1 6.45971 3.21633 4.80747 
341 1 1 7.95303 3.28062 5.0169 
458 1 1 7.23784 3.96229 6.50582 
379 1 1 7.24483 4.03373 4.90411 
363 1 1 0.690418 4.74605 5.63259 
383 1 1 0.489462 6.50006 5.62329 
368 1 1 1.70029 5.26254 5.55859 
367 1 1 2.5188 4.76777 5.63691 
372 1 1 3.28615 5.58463 5.67625 
370 1 1 4.03826 5.57167 4.8429 
376 1 1 4.75111 5.62843 5.67926 
391 1 1 4.12301 6.65436 5.62808 
374 1 1 5.75685 5.61966 4.91789 
397 1 1 6.4754 6.47813 4.82431 
477 1 1 6.4981 4.95735 6.41311 
375 1 1 5.50612 4.85766 5.60672 
380 1 1 6.56945 5.74652 5.6566 
474 1 1 5.67135 5.48515 6.42196 
381 1 1 8.08417 6.2192 4.69924 
364 1 1 0.0783038 5.62922 5.78715 
377 1 1 6.50191 4.87715 5.02073 
478 1 1 7.36822 5.00339 5.86193 
499 1 1 7.33885 5.80992 6.51673 
305 1 1 1.62643 8.03957 4.84324 
382 1 1 0.615623 7.19437 4.83567 
303 1 1 0.709256 8.08683 5.54196 
388 1 1 1.66303 7.46325 5.69352 
384 1 1 8.01109 7.44059 5.56888 
482 1 1 0.89373 7.40093 6.37197 
307 1 1 2.44226 0.0282404 5.46072 
389 1 1 3.3276 6.4379 4.88138 
387 1 1 2.34343 6.4171 5.62578 
486 1 1 2.45435 7.29466 6.40284 
392 1 1 3.20613 7.28028 5.53976 
393 1 1 4.82427 6.35561 4.86178 
490 1 1 4.04687 7.3256 6.50614 
396 1 1 4.9368 7.24445 5.69076 
489 1 1 3.10927 6.58744 6.26493 
394 1 1 5.74572 7.21724 4.79171 
395 1 1 5.62625 6.33372 5.63779 
315 1 1 5.67102 8.05108 5.65546 
400 1 1 6.4215 7.2424 5.59448 
497 1 1 6.56485 6.47355 6.40794 
301 1 1 8.02728 0.107854 4.87644 
401 1 1 8.04021 7.95148 6.39688 
399 1 1 7.52499 6.48421 5.72721 
498 1 1 7.35626 7.26728 6.52378 
2 1 1 0.823286 0.984823 7.994 
402 1 1 0.792296 0.651505 6.54577 
403 1 1 0.67443 0.10652 7.42111 
6 1 1 2.5208 0.720288 0.0255095 
406 1 1 2.32342 0.770671 6.34686 
408 1 1 1.62747 0.791102 7.36178 
412 1 1 3.16892 0.840058 7.16744 
410 1 1 4.03946 0.942616 6.59481 
9 1 1 3.3496 0.117623 8.08222 
417 1 1 6.45215 0.119987 6.50182 
414 1 1 5.64665 0.785395 6.6292 
416 1 1 4.81646 0.914104 7.27999 
415 1 1 5.66735 0.0918712 7.34422 
433 1 1 4.80455 1.7777 6.4307 
435 1 1 5.65325 1.63111 7.20783 
413 1 1 4.80074 0.044339 6.50367 
420 1 1 6.50317 0.664481 7.40045 
404 1 1 7.87789 0.77177 7.28488 
419 1 1 7.33777 7.95509 7.21744 
25 1 1 1.5785 1.6731 8.04095 
22 1 1 0.940197 2.60725 0.0584053 
421 1 1 0.135556 1.57727 6.57344 
425 1 1 1.55437 1.73042 6.4745 
423 1 1 0.745781 1.81775 7.37746 
428 1 1 1.60022 2.51965 7.16022 
427 1 1 2.26888 1.66349 7.22095 
426 1 1 2.4626 2.61342 6.52675 
430 1 1 3.95549 2.30993 6.49117 
432 1 1 3.24816 2.47391 7.195 
431 1 1 3.95122 1.72128 7.29527 
451 1 1 4.05227 3.15622 7.2953 
34 1 1 5.60723 2.44743 0.10714 
434 1 1 5.60417 2.42961 6.13152 
33 1 1 4.86897 1.78987 8.02646 
436 1 1 4.97963 2.47717 7.24809 
57 1 1 6.4588 3.17466 8.0445 
438 1 1 7.16391 2.48196 6.34713 
424 1 1 8.03518 2.57547 7.03565 
440 1 1 6.33419 2.41439 7.13554 
439 1 1 7.00639 1.66625 7.36446 
465 1 1 1.56352 4.67026 6.39865 
443 1 1 0.739737 3.30182 7.20408 
463 1 1 0.714256 4.92103 7.37925 
447 1 1 2.47496 3.41638 7.24392 
448 1 1 1.67017 4.03167 7.30884 
446 1 1 2.51514 3.9958 6.39763 
46 1 1 2.53352 4.11365 8.05222 
467 1 1 2.54253 4.91129 7.02917 
449 1 1 3.23403 3.31903 6.54755 
473 1 1 4.72058 4.66814 6.43373 
49 1 1 3.45847 3.25715 0.0193196 
452 1 1 3.26193 4.10866 7.29371 
453 1 1 4.61443 3.27277 6.28064 
455 1 1 5.81266 3.45639 7.26249 
456 1 1 4.80444 3.97943 7.19426 
475 1 1 5.38516 4.81135 7.24034 
41 1 1 -0.0278557 3.19962 8.01042 
441 1 1 7.88738 3.20756 6.07996 
460 1 1 6.5406 4.14474 7.2693 
459 1 1 7.15009 3.25003 7.37819 
444 1 1 7.98708 4.09322 7.25797 
62 1 1 0.771741 5.58252 0.0391699 
65 1 1 1.59233 4.91483 0.0652455 
462 1 1 0.957303 5.56248 6.31157 
468 1 1 1.51246 5.45245 7.22229 
466 1 1 2.52077 5.699 6.42877 
487 1 1 2.54559 6.58707 7.42022 
472 1 1 3.2738 5.70495 7.27814 
485 1 1 1.63242 6.43053 6.36955 
470 1 1 3.92464 5.87012 6.3361 
471 1 1 4.02875 4.8193 7.23533 
491 1 1 4.14905 6.63142 7.22846 
476 1 1 4.76063 5.61252 7.19347 
74 1 1 5.75491 5.63364 0.0198303 
480 1 1 6.53622 5.54104 7.24835 
61 1 1 8.09018 4.81245 0.100108 
81 1 1 7.91203 6.4614 0.114235 
461 1 1 0.0375729 4.75492 6.483 
464 1 1 8.04318 5.7293 7.33492 
479 1 1 7.31955 4.8086 7.28733 
78 1 1 7.20305 6.56757 7.34107 
1 1 1 7.94224 8.08039 0.053445 
483 1 1 0.815488 6.35365 7.24388 
484 1 1 8.06611 7.24784 7.39808 
86 1 1 2.56286 7.41923 8.02545 
407 1 1 2.48975 0.143347 7.28137 
488 1 1 1.71321 7.10086 7.2723 
409 1 1 3.2273 8.06311 6.39076 
493 1 1 4.83995 6.42723 6.4958 
492 1 1 3.28772 7.33314 7.28149 
411 1 1 4.05163 7.9875 7.41007 
496 1 1 4.85687 7.46294 7.38926 
494 1 1 5.73179 7.3858 6.44682 
495 1 1 5.69237 6.32011 7.01512 
500 1 1 6.2988 7.37684 7.44964 
481 1 1 0.114362 6.58819 6.64248 
98 1 1 7.0746 7.24523 0.0802265 
