ITEM: TIMESTEP
28000
ITEM: NUMBER OF ATOMS
500
ITEM: BOX BOUNDS pp pp pp
0 8.07388
0 8.07388
0 8.07388
ITEM: ATOMS id type mass x y z 
2 1 1 0.810348 0.873086 0.0745235 
23 1 1 0.744341 1.60785 0.786315 
25 1 1 1.42779 1.66496 8.05595 
3 1 1 0.692409 0.120711 0.741129 
8 1 1 1.62934 0.670413 0.865366 
27 1 1 2.2517 1.51892 0.835442 
29 1 1 3.20652 1.58279 0.040382 
7 1 1 2.49334 0.0751424 0.74383 
5 1 1 1.56256 0.0545372 8.03136 
6 1 1 2.4229 0.808808 7.99558 
12 1 1 3.19697 0.804535 0.740931 
133 1 1 4.89694 1.60964 1.60528 
31 1 1 3.95361 1.46387 0.798735 
16 1 1 4.81551 0.783297 0.790629 
110 1 1 4.1277 0.7093 1.64611 
10 1 1 4.07188 0.861155 8.00652 
35 1 1 5.56343 1.66904 0.819185 
20 1 1 6.34016 0.927481 0.806164 
37 1 1 6.33983 1.83058 0.0382463 
14 1 1 5.59273 0.875222 0.00731663 
4 1 1 7.98145 0.914629 0.782018 
21 1 1 0.0631033 1.75424 7.98702 
39 1 1 7.245 1.77826 0.703284 
137 1 1 6.3192 1.70912 1.57767 
22 1 1 0.921305 2.54202 7.97343 
122 1 1 0.68783 2.51109 1.74297 
28 1 1 1.54653 2.32876 0.984566 
26 1 1 2.34373 2.18424 0.0726973 
45 1 1 1.76455 3.09934 0.14421 
47 1 1 2.38663 2.97321 0.872266 
32 1 1 3.17652 2.38053 0.814906 
30 1 1 3.92302 2.44158 7.96719 
36 1 1 4.60228 2.41933 0.867352 
153 1 1 4.69167 3.28266 1.5367 
130 1 1 3.92606 2.09383 1.54884 
34 1 1 5.43885 2.52501 0.0157348 
134 1 1 5.51485 2.51184 1.71933 
157 1 1 6.39649 3.11092 1.772 
40 1 1 6.31757 2.49179 0.85035 
24 1 1 0.00281022 2.38071 0.874205 
59 1 1 7.35371 3.16785 0.830486 
138 1 1 7.25428 2.49698 1.63455 
41 1 1 0.0461774 3.25701 7.95651 
43 1 1 0.947573 3.12688 0.851346 
48 1 1 1.60537 4.0426 0.786227 
63 1 1 0.833579 4.87877 0.839835 
46 1 1 2.23451 4.17846 0.0253701 
52 1 1 3.22474 4.05599 0.7451 
165 1 1 1.76681 4.86344 1.75653 
169 1 1 3.11944 4.77726 1.61793 
51 1 1 4.04369 3.39985 0.683787 
56 1 1 4.86873 4.0783 0.827013 
55 1 1 5.56092 3.23204 1.02226 
60 1 1 6.46241 4.1016 0.976579 
154 1 1 5.71157 4.13471 1.64142 
54 1 1 5.72365 3.8551 0.174185 
44 1 1 0.165925 3.96634 0.771334 
161 1 1 7.28886 4.91755 0.856565 
57 1 1 6.58995 3.19239 0.0772574 
58 1 1 7.31641 3.90745 0.100264 
68 1 1 1.4736 5.67652 0.927997 
162 1 1 0.919559 5.90442 1.73078 
185 1 1 1.8155 6.45608 1.73978 
67 1 1 2.33495 5.02163 0.854495 
72 1 1 3.2795 5.5635 0.672167 
69 1 1 3.17736 4.77853 7.92152 
87 1 1 2.48331 6.3982 0.758496 
66 1 1 2.44611 5.6262 8.07883 
71 1 1 4.09077 4.81221 0.657282 
173 1 1 4.71833 4.74073 1.65271 
91 1 1 4.00301 6.39005 0.709636 
70 1 1 4.16055 5.68512 7.99726 
75 1 1 5.68666 4.85928 0.961239 
76 1 1 4.95981 5.58913 0.713126 
77 1 1 6.36433 4.78879 0.113644 
64 1 1 0.0586431 5.74337 0.87453 
80 1 1 6.34768 5.71582 0.706042 
79 1 1 7.19522 5.73348 0.0632943 
61 1 1 8.05252 4.93491 0.164374 
83 1 1 0.989122 6.80593 1.06893 
84 1 1 7.94639 7.46713 0.651185 
181 1 1 0.080672 6.59701 1.59926 
182 1 1 0.834947 7.46342 1.96419 
81 1 1 0.053181 6.584 0.0612059 
82 1 1 0.865545 7.24663 0.183498 
88 1 1 1.81388 7.40308 0.810642 
86 1 1 2.50027 7.23662 7.96157 
11 1 1 3.96929 7.99685 0.873697 
92 1 1 3.31504 7.13791 0.810287 
96 1 1 4.79223 7.03359 0.851714 
13 1 1 4.91859 0.0704684 7.95527 
9 1 1 3.31551 7.97205 0.00866107 
15 1 1 5.56225 7.9315 0.789999 
113 1 1 4.85991 0.0121211 1.83236 
95 1 1 5.73729 6.62609 0.936223 
100 1 1 6.51367 7.47301 0.698954 
117 1 1 6.44822 0.0304061 1.50744 
194 1 1 5.65747 7.44529 1.77462 
99 1 1 7.33245 6.53141 0.800478 
19 1 1 7.19327 0.0792617 0.728952 
98 1 1 7.25494 7.22808 8.00419 
197 1 1 6.46406 6.50182 1.65447 
198 1 1 7.27661 7.32475 1.41145 
102 1 1 0.790929 0.845102 1.51598 
108 1 1 1.59723 0.907493 2.38196 
103 1 1 0.773941 0.192059 2.60894 
101 1 1 0.0444207 0.187038 1.66538 
106 1 1 2.38026 0.680126 1.60797 
107 1 1 2.38307 0.0108834 2.47112 
127 1 1 2.36879 1.51089 2.33768 
112 1 1 3.13108 0.680097 2.29343 
129 1 1 3.13585 1.4904 1.7001 
210 1 1 3.95639 0.776615 3.3264 
116 1 1 4.67734 0.791326 2.55181 
114 1 1 5.58095 0.870392 1.63855 
135 1 1 5.52877 1.64559 2.46432 
120 1 1 6.41072 0.859788 2.16118 
104 1 1 8.03214 0.865008 2.6815 
201 1 1 7.92715 7.84453 3.32514 
118 1 1 7.31595 0.884947 1.62861 
139 1 1 7.38683 1.62158 2.50574 
125 1 1 1.56298 1.53447 1.56655 
123 1 1 0.849888 1.69565 2.31253 
241 1 1 0.0534449 3.27983 3.23028 
145 1 1 1.58487 3.15776 1.66345 
141 1 1 8.00253 3.2374 1.58067 
143 1 1 0.703165 3.35517 2.40666 
222 1 1 0.802377 2.4074 3.41687 
128 1 1 1.65661 2.36121 2.59976 
126 1 1 2.33003 2.22081 1.60708 
225 1 1 1.643 1.63378 3.36641 
226 1 1 2.58775 2.35754 3.32148 
131 1 1 4.01476 1.63024 2.40984 
132 1 1 3.32484 2.48292 2.44465 
151 1 1 3.97199 3.25011 2.53383 
233 1 1 4.74631 1.54204 3.2742 
136 1 1 4.63792 2.44184 2.39819 
155 1 1 5.47238 3.21921 2.44977 
234 1 1 5.70688 2.45825 3.09675 
121 1 1 8.09126 1.55567 1.54735 
124 1 1 0.0528095 2.42191 2.40266 
140 1 1 6.54258 2.43648 2.48764 
142 1 1 0.7625 4.01893 1.5633 
144 1 1 8.06159 4.15309 2.53133 
242 1 1 0.968921 4.84652 2.46757 
149 1 1 3.34553 3.11488 1.51568 
147 1 1 2.2899 3.16355 2.44817 
148 1 1 1.63693 3.97511 2.24629 
146 1 1 2.3635 4.0502 1.51085 
167 1 1 2.30154 4.79773 2.56115 
150 1 1 3.8791 3.94949 1.5985 
152 1 1 3.27578 4.06665 2.45915 
250 1 1 3.95344 3.95359 3.41002 
156 1 1 4.82269 4.01294 2.45645 
160 1 1 6.60683 4.21572 2.37489 
273 1 1 4.94399 4.7144 3.39783 
175 1 1 5.5704 4.83431 2.41888 
253 1 1 4.69277 3.25013 3.29173 
254 1 1 5.62499 4.04462 3.13079 
158 1 1 7.34068 4.14843 1.64889 
159 1 1 7.29876 3.17369 2.42345 
258 1 1 7.24927 4.17467 3.27575 
277 1 1 6.50174 4.85869 3.18147 
163 1 1 0.0976494 4.86014 1.58963 
179 1 1 7.40759 4.96435 2.46402 
262 1 1 0.872579 5.75596 3.32008 
164 1 1 0.184821 5.64963 2.42858 
183 1 1 0.697844 6.54406 2.48326 
168 1 1 1.66933 5.60172 2.52136 
265 1 1 1.54457 4.86655 3.28294 
166 1 1 2.56489 5.67442 1.64131 
266 1 1 2.38714 5.68062 3.17349 
269 1 1 3.25436 4.93672 3.37521 
171 1 1 3.97307 4.80488 2.56272 
170 1 1 3.87603 5.37501 1.61531 
172 1 1 3.11737 5.45261 2.49646 
270 1 1 4.25706 5.57006 3.33948 
174 1 1 5.73338 5.71619 1.57703 
176 1 1 4.83796 5.52705 2.36891 
274 1 1 5.46126 5.62663 3.14544 
177 1 1 6.49286 5.04179 1.56291 
178 1 1 7.4518 5.7032 1.72708 
180 1 1 6.45271 5.62196 2.48672 
281 1 1 7.97496 6.55299 3.10006 
188 1 1 1.71645 7.18778 2.4521 
105 1 1 1.67201 7.89766 1.75205 
186 1 1 2.52054 7.30187 1.5017 
109 1 1 3.18443 8.06301 1.54144 
187 1 1 2.5023 6.40788 2.53367 
189 1 1 3.28656 6.39125 1.54075 
286 1 1 2.51916 7.27306 3.26849 
192 1 1 3.07931 7.26113 2.35353 
190 1 1 4.14573 7.17729 1.7743 
111 1 1 4.00815 0.0209276 2.44489 
191 1 1 4.08761 6.21941 2.26786 
193 1 1 4.89099 6.33909 1.69422 
293 1 1 4.7668 6.52495 3.25355 
196 1 1 4.9103 7.19555 2.49156 
115 1 1 5.53806 0.016037 2.63519 
195 1 1 5.64988 6.4521 2.52903 
217 1 1 6.46264 0.124616 3.25328 
294 1 1 5.87411 7.25233 3.23837 
119 1 1 7.28973 0.188461 2.40452 
184 1 1 7.99627 7.30155 2.43072 
200 1 1 6.58336 7.37126 2.3003 
199 1 1 7.33954 6.53722 2.39031 
298 1 1 7.03521 7.305 3.26085 
202 1 1 0.857696 0.902238 3.30819 
208 1 1 1.55372 0.762608 4.2567 
204 1 1 0.0326071 0.838734 4.12149 
203 1 1 0.878097 8.04076 4.15476 
205 1 1 1.57349 0.150241 3.12292 
302 1 1 0.866257 0.618363 4.90001 
305 1 1 1.73423 8.0348 4.89126 
206 1 1 2.30744 0.932759 3.17811 
227 1 1 2.44183 1.43272 4.1594 
329 1 1 3.30608 1.58188 4.90482 
207 1 1 2.39616 0.0753473 3.9386 
325 1 1 1.60508 1.5859 4.92471 
306 1 1 2.55065 0.736703 4.94307 
212 1 1 3.29882 0.579638 4.11362 
211 1 1 4.06231 7.89309 4.17128 
216 1 1 5.06287 0.845972 4.14239 
214 1 1 5.68063 0.855382 3.12234 
314 1 1 5.55857 0.725672 4.9602 
220 1 1 6.33993 0.737551 4.10114 
215 1 1 5.68026 7.9719 3.90759 
218 1 1 7.22888 0.767526 3.34278 
318 1 1 7.27139 0.904658 4.96776 
337 1 1 6.40465 1.4913 4.72418 
245 1 1 1.36136 3.32168 3.1386 
223 1 1 0.765829 1.61021 4.23289 
221 1 1 0.0826932 1.63843 3.23504 
224 1 1 7.89073 2.46751 3.98921 
322 1 1 0.857036 2.2975 4.88918 
341 1 1 0.0389449 3.11754 4.81708 
228 1 1 1.7371 2.61912 4.03712 
247 1 1 2.56924 3.29624 4.04963 
232 1 1 3.29557 2.20761 3.99454 
229 1 1 3.1348 1.4796 3.17311 
249 1 1 3.21671 3.23416 3.17028 
231 1 1 4.17533 1.41532 4.17212 
230 1 1 4.01841 2.40466 3.31144 
333 1 1 4.9293 1.63733 4.89826 
236 1 1 4.79156 2.43279 4.05846 
235 1 1 5.6007 1.69498 3.92176 
240 1 1 6.36571 2.62084 4.00867 
257 1 1 6.39412 3.37245 3.06756 
238 1 1 7.27913 2.55193 3.21255 
237 1 1 6.44855 1.53093 3.14029 
239 1 1 7.12479 1.56056 3.8805 
338 1 1 7.08721 2.2838 4.68149 
244 1 1 0.776621 4.11531 3.2146 
243 1 1 0.766344 3.13979 4.15423 
358 1 1 8.03229 3.88175 4.11154 
263 1 1 0.77728 4.98032 4.08527 
248 1 1 1.63335 3.89937 3.9166 
246 1 1 2.54205 4.05819 3.35275 
349 1 1 3.22191 3.0612 4.95822 
252 1 1 3.25962 3.9665 4.1998 
345 1 1 1.70336 3.32063 4.82657 
251 1 1 3.81861 3.11218 4.06325 
256 1 1 4.81192 3.99808 4.15354 
255 1 1 5.61725 3.37571 3.96642 
275 1 1 5.64371 4.86964 4.10003 
259 1 1 7.24674 3.2399 4.04372 
260 1 1 6.46308 4.23732 4.00912 
377 1 1 6.39161 4.97609 4.79015 
379 1 1 7.28251 3.93186 4.86482 
264 1 1 8.02205 5.67295 3.94442 
362 1 1 0.783208 5.66765 4.96248 
268 1 1 1.67257 5.71789 3.98272 
369 1 1 3.17757 4.85908 4.78088 
267 1 1 2.45573 4.87349 3.98172 
272 1 1 3.23869 5.60267 4.04216 
271 1 1 3.97372 4.67662 4.17609 
291 1 1 4.10233 6.46078 4.06898 
370 1 1 3.96673 5.61949 4.72702 
393 1 1 4.81028 6.45096 4.92271 
276 1 1 4.87937 5.58473 4.28796 
295 1 1 5.51734 6.58975 3.95341 
374 1 1 5.7295 5.75974 4.90597 
261 1 1 0.237141 4.93207 3.20414 
278 1 1 7.30895 5.70973 3.20406 
279 1 1 7.26316 4.88409 3.9804 
280 1 1 6.21943 5.73193 3.93718 
378 1 1 7.32978 5.63344 4.84697 
361 1 1 0.0294416 4.79731 4.74468 
282 1 1 0.829128 7.38711 3.31672 
283 1 1 0.917646 6.46318 4.07575 
284 1 1 0.105432 7.17503 4.0917 
285 1 1 1.65856 6.55088 3.21209 
288 1 1 1.73164 7.37211 4.12484 
289 1 1 3.54996 6.25116 3.15613 
287 1 1 2.53221 6.44386 3.87896 
292 1 1 3.37224 7.2309 4.0018 
389 1 1 3.1929 6.49519 4.72169 
209 1 1 3.33684 8.06042 3.14663 
290 1 1 3.98183 7.20826 3.01193 
213 1 1 4.59838 -5.74682e-05 3.28726 
296 1 1 4.90001 7.30743 4.28351 
300 1 1 6.49041 7.27094 4.2568 
219 1 1 7.36379 0.0821937 4.23382 
317 1 1 6.44318 0.0598213 4.80595 
299 1 1 7.18362 6.50054 3.92391 
297 1 1 6.45647 6.41571 3.19535 
301 1 1 0.012018 7.91078 4.93492 
304 1 1 0.0188449 0.789795 5.55083 
308 1 1 1.63695 0.737175 5.66908 
321 1 1 0.00049629 1.65189 4.96887 
323 1 1 0.715188 1.60523 5.71549 
303 1 1 0.794208 7.92185 5.76685 
309 1 1 3.36282 8.07735 4.95164 
327 1 1 2.33353 1.51143 5.72022 
307 1 1 2.49907 8.07233 5.72733 
406 1 1 2.39906 0.637069 6.51486 
409 1 1 3.24458 7.7913 6.47789 
313 1 1 4.86083 8.05413 5.00602 
312 1 1 3.21983 0.758542 5.80955 
310 1 1 4.15749 0.682959 4.87898 
311 1 1 4.10594 7.9373 5.76833 
316 1 1 4.78535 0.919828 5.63579 
315 1 1 5.68415 8.00239 5.84437 
414 1 1 5.63694 0.820043 6.41585 
320 1 1 6.44338 0.816072 5.63151 
418 1 1 7.37066 0.860597 6.41511 
324 1 1 0.00975122 2.37961 5.70524 
343 1 1 0.690274 3.09868 5.627 
441 1 1 8.06299 3.28212 6.45779 
328 1 1 1.68273 2.42547 5.44179 
326 1 1 2.46376 2.23481 4.83813 
332 1 1 3.18144 2.34361 5.63344 
445 1 1 1.74279 3.23972 6.32267 
331 1 1 4.06806 1.63115 5.68387 
330 1 1 4.06335 2.39778 4.89288 
353 1 1 4.81503 3.17785 4.85563 
430 1 1 3.80914 2.43091 6.57665 
357 1 1 6.46905 3.31299 5.00539 
335 1 1 5.68666 1.65682 5.73288 
336 1 1 4.85168 2.40237 5.71096 
334 1 1 5.71315 2.37194 4.82823 
340 1 1 6.42545 2.4278 5.69179 
339 1 1 7.30671 1.70925 5.6702 
438 1 1 7.24821 2.51468 6.38343 
359 1 1 7.38158 3.08063 5.49502 
342 1 1 0.856756 3.99318 4.8309 
363 1 1 0.894386 4.83841 5.64572 
348 1 1 1.83485 4.20354 5.69585 
344 1 1 8.06209 3.99349 5.65475 
346 1 1 2.30424 4.08157 4.71542 
449 1 1 3.25576 3.2522 6.31239 
347 1 1 2.4629 3.12777 5.61112 
352 1 1 2.99147 4.0877 5.61115 
446 1 1 2.49585 4.03766 6.56963 
350 1 1 4.00285 4.06053 4.99701 
351 1 1 4.09 3.24285 5.57713 
356 1 1 4.89391 3.97886 5.69963 
354 1 1 5.58015 3.97689 4.96612 
355 1 1 5.6537 3.19821 5.61627 
360 1 1 6.57969 4.20634 5.57664 
373 1 1 4.89324 4.754 4.86284 
375 1 1 5.74288 4.82508 5.59587 
478 1 1 7.31872 4.84701 5.63498 
458 1 1 7.10562 4.08569 6.48286 
381 1 1 0.0197938 6.31741 4.80663 
383 1 1 0.925129 6.48372 5.89637 
368 1 1 1.56308 5.64384 5.72596 
364 1 1 0.175912 5.70201 5.86106 
385 1 1 1.74157 6.51904 4.82808 
366 1 1 2.38921 5.68203 4.80311 
367 1 1 2.5068 4.98739 5.64332 
469 1 1 3.25917 4.83073 6.54938 
365 1 1 1.54557 4.96832 4.77052 
372 1 1 3.29861 5.6046 5.58363 
371 1 1 3.95684 4.85147 5.59427 
470 1 1 4.1611 5.53437 6.45556 
376 1 1 4.84779 5.66545 5.54508 
474 1 1 5.67447 5.75386 6.53678 
473 1 1 4.97152 4.82546 6.47301 
380 1 1 6.59167 5.60987 5.6551 
397 1 1 6.58992 6.41553 4.75345 
399 1 1 7.2697 6.46406 5.67727 
499 1 1 7.26443 5.89325 6.44583 
382 1 1 0.781964 7.15955 4.98789 
384 1 1 0.0765968 6.97566 5.86766 
388 1 1 1.80145 7.36782 5.68102 
481 1 1 0.114121 6.37077 6.67909 
386 1 1 2.51025 7.34251 4.82055 
387 1 1 2.38624 6.43031 5.62708 
392 1 1 3.25778 7.27925 5.55099 
486 1 1 2.35687 7.30266 6.75027 
390 1 1 3.98438 7.20504 4.87641 
391 1 1 3.98514 6.41924 5.60865 
396 1 1 4.93978 7.17356 5.66352 
493 1 1 4.74395 6.38413 6.49647 
490 1 1 4.09973 7.12263 6.44229 
395 1 1 5.66101 6.39215 5.70666 
394 1 1 5.84204 7.24626 4.98576 
494 1 1 5.63624 7.1774 6.45618 
417 1 1 6.62989 0.0783165 6.41649 
398 1 1 7.26505 7.17315 4.87902 
319 1 1 7.36163 8.04202 5.65613 
400 1 1 6.54538 7.30182 5.7356 
498 1 1 7.30598 7.22319 6.47807 
402 1 1 0.797182 0.752025 6.53149 
408 1 1 1.70938 0.823291 7.29564 
404 1 1 8.02014 0.796936 7.27095 
403 1 1 0.972668 0.0538445 7.3246 
429 1 1 3.16441 1.65557 6.3448 
407 1 1 2.5585 8.08747 7.37731 
405 1 1 1.48692 8.00127 6.43832 
412 1 1 3.16022 0.837569 7.10753 
410 1 1 3.96284 0.766226 6.53842 
431 1 1 3.73854 1.67192 7.21771 
416 1 1 4.906 0.998845 7.18248 
413 1 1 4.90791 0.04319 6.6335 
33 1 1 4.77708 1.73493 0.064054 
433 1 1 4.79698 1.65816 6.42494 
435 1 1 5.70861 1.66263 7.26239 
415 1 1 5.78516 0.0612519 7.14573 
18 1 1 7.19312 0.997423 8.0207 
420 1 1 6.58085 0.837853 7.11955 
439 1 1 7.20333 1.79399 7.30385 
425 1 1 1.5325 1.59912 6.40635 
423 1 1 0.741241 1.61676 7.22729 
422 1 1 0.826981 2.43958 6.45808 
428 1 1 1.56396 2.30071 7.23468 
424 1 1 0.0143299 2.46997 7.25223 
443 1 1 0.962262 3.23479 7.18469 
49 1 1 3.12872 3.05325 0.0366872 
426 1 1 2.46822 2.3915 6.37368 
427 1 1 2.49056 1.57253 7.10869 
447 1 1 2.32337 3.16014 7.32599 
432 1 1 3.0559 2.45896 7.27075 
436 1 1 4.65514 2.36085 7.22131 
451 1 1 3.89962 3.2314 7.23936 
434 1 1 5.55414 2.57837 6.41974 
457 1 1 6.45846 3.13837 6.41781 
440 1 1 6.41242 2.54306 7.31566 
437 1 1 6.44396 1.77684 6.49251 
421 1 1 0.046991 1.62323 6.47117 
38 1 1 7.35576 2.5526 8.07734 
42 1 1 0.896989 3.967 0.00468084 
65 1 1 1.56961 4.89529 7.98502 
442 1 1 0.876445 3.98989 6.3971 
448 1 1 1.58467 4.00515 7.27991 
452 1 1 3.09488 3.85366 7.32263 
50 1 1 4.0061 4.14174 7.95474 
53 1 1 4.76681 3.2079 8.0169 
450 1 1 3.93951 4.11408 6.42463 
453 1 1 4.61613 3.1584 6.4617 
456 1 1 4.83767 3.97487 7.1934 
73 1 1 4.98888 4.77379 8.01011 
454 1 1 5.70456 4.01513 6.31822 
455 1 1 5.57589 3.18401 7.31901 
475 1 1 5.77699 4.7408 7.25245 
460 1 1 6.41294 3.90837 7.28659 
461 1 1 0.111541 4.7775 6.40718 
444 1 1 7.98782 4.06703 7.30762 
459 1 1 7.20862 3.25172 7.11366 
477 1 1 6.42874 5.06042 6.51396 
479 1 1 7.31655 4.91081 7.13553 
62 1 1 0.80172 5.72606 0.113267 
462 1 1 0.83076 5.70149 6.82614 
463 1 1 0.69122 4.87106 7.42712 
468 1 1 1.75018 5.77824 7.36843 
465 1 1 1.48901 4.84948 6.751 
467 1 1 2.37998 4.81644 7.30886 
466 1 1 2.49298 5.57905 6.42952 
85 1 1 1.63345 6.41868 0.0912754 
93 1 1 4.87184 6.34572 0.00392261 
472 1 1 3.19624 5.6998 7.31533 
471 1 1 4.06536 4.80647 7.17593 
74 1 1 5.66752 5.69229 7.94114 
476 1 1 4.81363 5.56757 7.22079 
480 1 1 6.44004 5.76864 7.33678 
464 1 1 0.020156 5.66488 7.45899 
497 1 1 6.38413 6.48598 6.49892 
78 1 1 7.37085 6.46138 7.28101 
485 1 1 1.59066 6.63197 6.63897 
401 1 1 0.00119334 8.00181 6.54454 
483 1 1 0.859633 6.50079 7.49385 
482 1 1 0.813692 7.15943 6.74984 
484 1 1 -0.0173933 7.2669 7.26834 
89 1 1 3.23228 6.35073 -0.00153133 
487 1 1 2.48655 6.42813 7.21953 
488 1 1 1.65928 7.23977 7.40559 
492 1 1 3.30604 7.10625 7.23752 
90 1 1 4.04546 7.21172 8.05387 
489 1 1 3.13431 6.48979 6.44425 
491 1 1 3.90782 6.37064 7.23082 
411 1 1 4.13642 0.0292959 7.309 
496 1 1 4.70715 7.1407 7.25147 
94 1 1 5.61284 7.35502 0.0135526 
495 1 1 5.62785 6.64696 7.35117 
500 1 1 6.51005 7.26604 7.20967 
17 1 1 6.45731 0.238084 8.04471 
419 1 1 7.07001 8.00472 7.30065 
1 1 1 7.76007 0.07627 7.92727 
97 1 1 6.48087 6.61388 0.0592271 
