ITEM: TIMESTEP
39000
ITEM: NUMBER OF ATOMS
500
ITEM: BOX BOUNDS pp pp pp
0 8.07388
0 8.07388
0 8.07388
ITEM: ATOMS id type mass x y z 
23 1 1 0.909887 1.60199 0.844505 
3 1 1 0.663736 7.99073 0.680446 
102 1 1 0.744539 0.865816 1.64997 
2 1 1 0.743178 0.897631 7.9909 
8 1 1 1.44649 0.770819 0.800587 
27 1 1 2.38827 1.69262 0.658759 
6 1 1 2.28372 0.937001 7.99534 
7 1 1 2.18608 0.115708 0.68505 
12 1 1 2.99915 0.749012 0.820762 
10 1 1 4.00856 0.915775 0.0598216 
16 1 1 4.74644 0.799437 0.84436 
11 1 1 4.0175 0.0717577 0.835571 
13 1 1 4.84226 0.105793 -0.0326103 
9 1 1 3.00672 0.105964 8.07706 
35 1 1 5.5658 1.5532 1.00035 
37 1 1 6.43075 1.76066 0.18355 
14 1 1 5.62542 0.93043 0.203767 
20 1 1 6.36939 0.89489 0.974612 
4 1 1 0.0667441 0.855762 0.66511 
39 1 1 7.28476 1.58471 0.864 
1 1 1 7.86795 0.0554632 -0.00358173 
24 1 1 0.0846032 2.28172 0.913661 
22 1 1 0.730992 2.49741 8.08833 
122 1 1 0.988646 2.40573 1.76542 
28 1 1 1.47894 2.65098 0.738714 
26 1 1 2.40888 2.54371 8.01916 
47 1 1 2.38815 3.38931 0.833064 
126 1 1 2.30065 2.31586 1.50035 
29 1 1 3.20472 1.44214 0.0208303 
32 1 1 3.07882 2.39959 0.803773 
49 1 1 3.14669 3.22658 8.08131 
31 1 1 3.88487 1.59418 0.847896 
30 1 1 3.86199 2.27099 0.0133592 
51 1 1 3.96062 3.16088 0.905505 
53 1 1 4.72591 3.1679 0.0550162 
36 1 1 4.75282 2.36213 0.837312 
40 1 1 6.66112 2.45775 0.865312 
55 1 1 5.63684 3.01347 0.829186 
33 1 1 4.82272 1.6564 0.135793 
141 1 1 8.06857 3.07996 1.47827 
59 1 1 7.39022 3.22321 0.717652 
138 1 1 7.30134 2.35254 1.64165 
43 1 1 0.737283 3.30924 0.716058 
41 1 1 0.0118679 3.19861 0.00229436 
142 1 1 0.725076 4.34209 1.64625 
145 1 1 1.45271 3.38923 1.61052 
42 1 1 0.677964 4.09233 7.96315 
48 1 1 1.45098 4.12942 0.914526 
146 1 1 2.38255 3.964 1.687 
46 1 1 2.44751 4.07256 7.91027 
52 1 1 3.26165 4.11563 0.796553 
50 1 1 4.03305 3.87208 0.101264 
56 1 1 4.77008 4.02307 0.731003 
154 1 1 5.60263 3.91659 1.5747 
173 1 1 5.00854 4.79087 1.64674 
75 1 1 5.89059 4.62969 0.713459 
54 1 1 5.57398 3.85611 7.85737 
77 1 1 6.36947 4.82127 7.9232 
44 1 1 0.0274449 4.10561 0.846657 
60 1 1 6.53938 3.82555 1.04164 
161 1 1 7.28512 4.76008 0.692629 
58 1 1 7.24503 4.09928 0.0446384 
63 1 1 0.873216 4.94836 0.667384 
68 1 1 1.78282 5.70276 0.756583 
165 1 1 1.69189 4.94188 1.5611 
67 1 1 2.37647 4.83458 0.774519 
66 1 1 2.56999 5.46147 0.00805734 
72 1 1 3.21525 5.41281 0.82246 
166 1 1 2.5309 5.61845 1.64642 
71 1 1 4.07184 4.75542 1.10247 
73 1 1 4.91931 4.76201 8.06083 
76 1 1 4.66922 5.61123 0.776722 
193 1 1 4.84382 6.33886 1.60987 
80 1 1 6.43958 5.6421 0.779771 
95 1 1 5.59913 6.55377 0.858494 
174 1 1 5.68265 5.75701 1.67355 
163 1 1 7.98282 5.0066 1.59901 
64 1 1 0.0727544 5.75843 0.850108 
178 1 1 7.23308 5.79582 1.692 
79 1 1 7.24311 5.63078 7.89245 
83 1 1 1.07808 6.6261 0.918834 
84 1 1 8.02453 7.1389 0.842286 
88 1 1 1.91949 7.32368 0.946179 
181 1 1 0.0924277 6.50234 1.67953 
182 1 1 0.789514 7.32736 1.53006 
87 1 1 2.61154 6.32915 0.634011 
92 1 1 3.15992 7.24058 0.642459 
189 1 1 3.18423 6.39431 1.73992 
186 1 1 2.65241 7.38135 1.65435 
91 1 1 3.8789 6.40088 0.918705 
15 1 1 5.65311 0.1256 0.909593 
17 1 1 6.45877 7.99675 8.04785 
96 1 1 4.86475 7.35255 0.720468 
94 1 1 5.71085 7.23981 0.00159691 
100 1 1 6.45826 7.27631 0.906591 
97 1 1 6.58379 6.41103 8.05202 
99 1 1 7.29551 6.34985 0.810016 
19 1 1 7.27413 0.0276853 0.954476 
198 1 1 7.23759 7.37584 1.66846 
101 1 1 0.076084 0.120547 1.66546 
202 1 1 0.735272 0.759439 3.39379 
105 1 1 1.60578 0.111963 1.56925 
106 1 1 2.3955 0.876895 1.74013 
108 1 1 1.77053 0.560631 2.52275 
112 1 1 3.26563 0.701384 2.52405 
110 1 1 4.17578 0.715349 1.69741 
114 1 1 5.59315 0.827357 1.80041 
133 1 1 4.69328 1.62276 1.68605 
116 1 1 4.80585 0.755276 2.50971 
120 1 1 6.45734 1.00723 2.50165 
135 1 1 5.6268 1.69677 2.56445 
118 1 1 7.24386 0.8436 1.67968 
137 1 1 6.42654 1.74372 1.71626 
104 1 1 0.104759 0.790179 2.50577 
201 1 1 8.07542 8.03763 3.39868 
218 1 1 7.47116 0.712028 3.39836 
123 1 1 0.771521 1.59125 2.5242 
125 1 1 1.53711 1.54071 1.89743 
124 1 1 7.9996 2.40069 2.35833 
128 1 1 1.72065 2.32202 2.55817 
225 1 1 1.56251 1.41685 3.07492 
222 1 1 0.84747 2.3949 3.16353 
221 1 1 8.02946 1.62442 3.33084 
129 1 1 3.04485 1.62589 1.45744 
127 1 1 2.44322 1.54027 2.58026 
226 1 1 2.4658 2.43107 3.26089 
229 1 1 3.15012 1.55489 3.37429 
130 1 1 4.01381 2.42372 1.74216 
132 1 1 3.14256 2.22517 2.40184 
131 1 1 4.03609 1.5777 2.54039 
230 1 1 3.98794 2.3889 3.31614 
134 1 1 5.48392 2.42569 1.67858 
136 1 1 4.82701 2.46998 2.68437 
153 1 1 4.78858 3.10912 1.75403 
140 1 1 6.34975 2.39342 2.57906 
233 1 1 4.81115 1.57461 3.255 
157 1 1 6.41655 3.02726 1.7442 
121 1 1 8.07495 1.57686 1.57206 
139 1 1 7.25277 1.58473 2.50793 
143 1 1 0.705744 3.45494 2.31513 
148 1 1 1.58022 4.21955 2.34058 
245 1 1 1.50296 3.30381 2.97134 
241 1 1 8.00186 3.17314 3.06191 
149 1 1 3.02544 3.14896 1.6546 
147 1 1 2.5294 3.02103 2.50436 
152 1 1 3.28933 3.86633 2.61899 
151 1 1 4.12699 3.3277 2.59574 
150 1 1 3.97197 3.81372 1.69264 
156 1 1 4.80221 4.00055 2.47295 
250 1 1 4.08748 4.03365 3.23835 
155 1 1 5.65542 3.30433 2.45426 
160 1 1 6.45695 4.12919 2.35573 
175 1 1 5.66498 4.89676 2.48237 
253 1 1 5.11716 3.3867 3.31557 
158 1 1 7.33515 4.18133 1.5932 
144 1 1 8.03586 4.20184 2.489 
159 1 1 7.27158 3.39802 2.35549 
258 1 1 7.20615 4.15384 3.24134 
162 1 1 0.993405 5.62196 1.4961 
242 1 1 0.725415 5.00921 2.49211 
262 1 1 0.698919 5.72352 3.10692 
183 1 1 0.968866 6.41276 2.31092 
285 1 1 1.54496 6.31215 3.30089 
168 1 1 1.6642 5.57024 2.53715 
167 1 1 2.40399 4.939 2.4536 
172 1 1 3.30244 5.60952 2.46515 
269 1 1 3.21593 4.79716 3.31269 
266 1 1 2.36247 5.72294 3.22053 
169 1 1 3.15686 4.63825 1.87544 
171 1 1 3.99998 4.75474 2.51668 
170 1 1 3.98492 5.62113 1.7508 
176 1 1 4.89422 5.59854 2.37028 
177 1 1 6.51035 4.96771 1.48369 
195 1 1 5.61964 6.509 2.51972 
274 1 1 5.7002 5.68643 3.36859 
179 1 1 7.3068 5.09566 2.47332 
277 1 1 6.48374 4.97003 3.05476 
180 1 1 6.26961 5.75542 2.50392 
164 1 1 0.0907175 5.78018 2.37475 
185 1 1 1.87596 6.47527 1.48075 
103 1 1 0.795915 8.06454 2.44194 
188 1 1 1.52159 7.2584 2.37789 
107 1 1 2.52851 7.94693 2.51988 
109 1 1 3.30139 0.0908919 1.61572 
187 1 1 2.33599 6.62682 2.49252 
192 1 1 3.27013 7.2137 2.62463 
113 1 1 4.91726 8.04075 1.65674 
111 1 1 4.08055 7.99504 2.54327 
213 1 1 4.79198 0.104963 3.29677 
191 1 1 4.18759 6.44826 2.47966 
190 1 1 3.90508 7.30153 1.75933 
115 1 1 5.67037 8.0629 2.55355 
197 1 1 6.45758 6.48495 1.71284 
196 1 1 4.93237 7.37087 2.63972 
194 1 1 5.65459 7.26193 1.62986 
200 1 1 6.48903 7.27444 2.62515 
199 1 1 7.35673 6.50907 2.41565 
117 1 1 6.52481 0.0925682 1.78242 
119 1 1 7.32822 0.0817579 2.45808 
281 1 1 7.98692 6.56814 3.19886 
184 1 1 0.0168835 7.28763 2.37285 
208 1 1 1.58617 0.756385 3.94569 
325 1 1 1.44319 1.50662 4.69412 
206 1 1 2.48707 0.644084 3.348 
227 1 1 2.21126 1.5779 4.00048 
209 1 1 3.29216 7.93447 3.27139 
306 1 1 2.40098 0.829749 4.67498 
212 1 1 3.24801 0.689334 4.00695 
210 1 1 4.02915 0.8839 3.4037 
310 1 1 4.12904 0.778443 4.69032 
211 1 1 4.06155 0.0796308 3.9365 
313 1 1 4.82006 8.06356 4.66599 
333 1 1 4.97184 1.64805 4.78203 
216 1 1 5.03753 0.910686 4.01704 
214 1 1 5.60149 0.896398 3.15825 
314 1 1 5.67647 0.662798 4.8199 
220 1 1 6.54038 0.788327 4.09484 
204 1 1 0.116161 0.992965 4.29042 
318 1 1 7.30867 0.939621 4.90508 
317 1 1 6.40313 8.03672 4.79727 
223 1 1 0.808833 1.63579 3.89705 
228 1 1 1.60075 2.43813 3.88093 
224 1 1 7.9614 2.51687 3.85218 
232 1 1 3.06955 2.44587 4.10071 
329 1 1 3.33616 1.4412 4.86622 
326 1 1 2.39476 2.08757 4.81942 
231 1 1 4.08158 1.64346 4.09026 
249 1 1 3.37483 3.16932 3.35065 
251 1 1 4.14342 3.1678 3.95733 
330 1 1 4.12459 2.42077 4.71764 
236 1 1 4.91309 2.42133 4.03208 
234 1 1 5.62147 2.50774 3.30738 
235 1 1 5.7497 1.5833 3.88449 
240 1 1 6.48408 2.42259 3.95407 
334 1 1 5.68216 2.37889 4.6541 
238 1 1 7.18594 2.55448 3.24077 
237 1 1 6.54426 1.65441 3.33858 
239 1 1 7.30768 1.5887 4.06626 
257 1 1 6.45996 3.35422 3.26016 
338 1 1 7.24182 2.52682 4.62395 
265 1 1 1.54985 5.00432 3.38639 
244 1 1 0.842413 4.17999 3.07742 
243 1 1 0.856112 3.26066 3.86688 
358 1 1 0.0608905 4.05147 3.97389 
263 1 1 0.769433 4.9111 4.12947 
246 1 1 2.24282 4.00337 3.07351 
247 1 1 2.42565 3.4495 3.9074 
248 1 1 1.49278 4.04451 3.84507 
346 1 1 2.26783 4.00728 4.91014 
252 1 1 3.33877 4.02056 3.98698 
271 1 1 4.12871 4.93644 3.99909 
369 1 1 3.33062 4.78161 4.76665 
255 1 1 5.76349 3.35087 4.12344 
256 1 1 4.76225 4.15616 4.01553 
254 1 1 5.67437 4.18524 3.29755 
259 1 1 7.30575 3.44147 4.06998 
260 1 1 6.52526 4.04655 4.13657 
279 1 1 7.30791 4.77859 4.32443 
377 1 1 6.50631 4.99642 4.94791 
379 1 1 7.48896 3.905 4.99045 
261 1 1 -0.0412505 4.94733 3.41659 
362 1 1 0.781349 5.50496 5.06426 
268 1 1 1.64595 5.57897 4.23894 
267 1 1 2.53463 4.81701 4.01936 
287 1 1 2.10315 6.50586 4.14524 
270 1 1 4.00732 5.70152 3.21052 
293 1 1 4.9148 6.31764 3.28449 
272 1 1 3.17096 5.72149 4.18915 
276 1 1 4.88114 5.51051 4.0522 
289 1 1 3.06824 6.40191 3.21168 
273 1 1 4.86602 4.86995 3.15922 
275 1 1 5.83325 4.89793 4.02153 
295 1 1 5.76284 6.46236 4.06306 
297 1 1 6.5471 6.45266 3.29552 
278 1 1 7.36958 5.66676 3.25681 
264 1 1 0.015267 5.55871 4.2026 
280 1 1 6.65433 5.6088 4.00068 
361 1 1 0.199894 4.69894 4.99501 
378 1 1 7.31256 5.73152 4.8175 
282 1 1 0.809378 7.03898 3.18043 
205 1 1 1.45638 7.94683 3.25431 
283 1 1 0.63996 6.41403 3.99107 
203 1 1 0.732446 0.0702804 4.23331 
284 1 1 0.00938754 7.21488 4.06879 
382 1 1 0.667048 7.27024 4.82975 
207 1 1 2.3855 8.01149 4.1 
288 1 1 1.22486 7.24129 4.02629 
286 1 1 2.25176 7.15707 3.33408 
292 1 1 3.01422 7.25751 4.04545 
309 1 1 3.07338 0.096918 4.81611 
290 1 1 4.09101 7.20269 3.35178 
291 1 1 4.06222 6.4415 4.1374 
296 1 1 4.83583 7.25125 4.01154 
390 1 1 3.99649 7.38589 4.90869 
294 1 1 5.68882 7.19491 3.33889 
215 1 1 5.65257 7.84261 4.15014 
217 1 1 6.58016 0.158437 3.11663 
397 1 1 6.53459 6.35689 4.85496 
300 1 1 6.44369 7.24656 4.03502 
219 1 1 7.26174 0.0306415 4.11131 
299 1 1 7.34395 6.46197 4.08343 
298 1 1 7.32873 7.32283 3.33092 
301 1 1 7.99504 7.99909 4.90011 
302 1 1 0.75037 0.711917 4.99152 
303 1 1 0.694581 0.0489539 5.77249 
308 1 1 1.55978 0.891333 5.62062 
421 1 1 8.08514 1.60617 6.44254 
406 1 1 2.30595 0.672309 6.39954 
327 1 1 2.41857 1.50752 5.63961 
307 1 1 2.33006 0.277185 5.52672 
425 1 1 1.64017 1.74933 6.43212 
312 1 1 3.41209 0.818041 5.68493 
331 1 1 4.10882 1.55757 5.65845 
410 1 1 4.24566 0.811201 6.26378 
316 1 1 5.05676 0.738219 5.65683 
414 1 1 5.7243 0.833574 6.60492 
413 1 1 5.03669 0.0419854 6.42953 
320 1 1 6.34406 0.749254 5.67612 
304 1 1 -0.023668 0.856728 5.6988 
319 1 1 7.19879 0.00816865 5.66343 
418 1 1 7.1779 0.919695 6.43928 
322 1 1 0.908799 2.42137 4.8231 
323 1 1 0.865134 1.71596 5.52783 
328 1 1 1.58948 2.45177 5.67415 
345 1 1 1.80314 3.02912 4.68658 
426 1 1 2.36493 2.37454 6.55274 
332 1 1 3.25815 2.19208 5.60856 
347 1 1 2.37271 3.06105 5.74459 
353 1 1 4.96884 3.16916 4.77578 
351 1 1 3.9783 2.93235 5.6216 
336 1 1 4.88587 2.32642 5.69317 
349 1 1 3.11961 2.96944 4.9527 
453 1 1 4.85102 3.08546 6.57134 
335 1 1 5.66965 1.62779 5.68745 
434 1 1 5.66711 2.43655 6.41554 
355 1 1 5.68165 3.03908 5.60975 
321 1 1 8.05425 1.98706 4.71147 
339 1 1 7.41701 1.70344 5.59643 
324 1 1 8.03223 2.42122 5.69092 
337 1 1 6.3263 1.60719 4.77163 
340 1 1 6.64489 2.45705 5.48608 
343 1 1 0.885224 3.19474 5.60945 
341 1 1 0.150628 3.17472 4.82713 
342 1 1 1.15215 3.75135 4.81865 
465 1 1 1.72702 4.86581 6.52938 
348 1 1 1.68253 4.0383 5.81704 
367 1 1 2.53302 4.79843 5.73351 
350 1 1 3.99174 3.65369 4.92954 
352 1 1 3.20919 3.96502 5.56641 
473 1 1 4.59594 4.55763 6.45204 
354 1 1 5.83612 4.06414 4.95177 
373 1 1 4.75048 4.60858 4.84995 
356 1 1 4.86197 3.72219 5.64198 
375 1 1 5.61221 4.95599 5.69854 
357 1 1 6.56068 3.28159 4.8576 
359 1 1 7.38615 3.22122 5.72333 
344 1 1 0.107136 3.94877 5.77787 
360 1 1 6.52545 3.99724 5.6768 
478 1 1 7.3979 4.83278 5.54171 
363 1 1 0.900853 4.73972 5.72693 
365 1 1 1.55141 4.78426 4.96606 
368 1 1 1.6088 5.62399 5.79427 
461 1 1 0.0899832 4.74417 6.37537 
462 1 1 0.7895 5.82043 6.44952 
481 1 1 7.97603 6.52547 6.56274 
366 1 1 2.41916 5.53817 4.90773 
387 1 1 2.4293 6.42185 5.58374 
370 1 1 4.05146 5.64946 4.99042 
371 1 1 4.10789 4.68139 5.57796 
372 1 1 3.15339 5.71509 5.72907 
489 1 1 3.25237 6.46243 6.53191 
470 1 1 4.22262 5.61078 6.49588 
493 1 1 4.88672 6.38559 6.52491 
374 1 1 5.70298 5.75423 4.94797 
376 1 1 4.91233 5.74157 5.64909 
380 1 1 6.47544 5.57554 5.88624 
395 1 1 5.6195 6.60439 5.78356 
364 1 1 0.0547982 5.6999 5.7915 
399 1 1 7.29209 6.45959 5.74494 
305 1 1 1.57958 0.0934257 4.8151 
383 1 1 0.641127 6.51971 5.63145 
381 1 1 0.0194361 6.47341 4.83508 
388 1 1 1.42973 7.44072 5.66346 
385 1 1 1.54319 6.55211 4.97416 
386 1 1 2.33603 7.3104 5.11995 
486 1 1 2.62254 7.52764 6.26604 
393 1 1 4.83901 6.46355 4.83033 
389 1 1 3.28363 6.4636 4.93329 
391 1 1 3.99181 6.54242 5.88031 
392 1 1 3.34718 7.22165 5.68836 
311 1 1 4.15577 0.0901705 5.61419 
409 1 1 3.42067 0.00169061 6.42333 
396 1 1 4.83645 7.30839 5.4826 
394 1 1 5.67738 7.10161 4.85662 
315 1 1 5.75391 7.98284 5.64371 
400 1 1 6.47958 7.13991 5.52822 
417 1 1 6.53078 0.0558847 6.52961 
384 1 1 7.99866 7.29052 5.65403 
398 1 1 7.30357 7.1932 4.80391 
498 1 1 7.31209 7.29424 6.4012 
402 1 1 0.832561 0.857753 6.39758 
408 1 1 1.62012 0.903066 7.10758 
423 1 1 0.857404 1.6297 7.09808 
403 1 1 0.571631 0.0480771 7.40904 
25 1 1 1.48298 1.65312 -0.0557936 
5 1 1 1.51845 0.085414 7.9266 
405 1 1 1.42377 0.0268351 6.55176 
427 1 1 2.29051 1.71548 7.30334 
412 1 1 2.99201 0.841102 7.19605 
407 1 1 2.39837 8.00838 7.15151 
431 1 1 3.96471 1.54978 7.39859 
433 1 1 4.89648 1.64246 6.39211 
411 1 1 4.02954 0.24581 7.27954 
437 1 1 6.50453 1.60739 6.33954 
416 1 1 4.82486 0.909409 7.34504 
420 1 1 6.48511 0.788002 7.44526 
18 1 1 7.1875 0.841478 0.18565 
21 1 1 0.039004 1.72419 0.0448711 
404 1 1 0.0242437 0.814106 7.20577 
439 1 1 7.24316 1.66814 7.27831 
401 1 1 7.98271 8.04048 6.44457 
422 1 1 0.940741 2.5249 6.62207 
441 1 1 8.01228 3.13331 6.65403 
424 1 1 8.02586 2.37084 7.28356 
45 1 1 1.58288 3.51945 8.07657 
429 1 1 3.08375 1.58687 6.45024 
445 1 1 1.58021 3.24605 6.42746 
428 1 1 1.598 2.69936 7.3808 
447 1 1 2.55895 3.21986 7.14947 
430 1 1 4.09263 2.31563 6.50013 
432 1 1 3.16913 2.36394 7.21107 
451 1 1 4.01996 2.94447 7.30661 
449 1 1 3.18662 2.88906 6.32526 
34 1 1 5.6756 2.44912 7.93001 
457 1 1 6.4878 3.20907 6.26701 
435 1 1 5.68643 1.52306 7.33529 
436 1 1 4.98515 2.2967 7.22497 
455 1 1 5.81601 3.18979 7.14521 
440 1 1 6.50289 2.40126 7.12746 
438 1 1 7.23775 2.34338 6.40315 
38 1 1 7.25401 2.35707 0.0442472 
443 1 1 0.774766 3.24417 7.36467 
442 1 1 0.923511 4.0132 6.59934 
444 1 1 7.92764 4.0939 7.26116 
448 1 1 1.82414 4.02037 7.10071 
446 1 1 2.54841 3.99273 6.31873 
69 1 1 3.21392 4.76739 8.08683 
469 1 1 3.24649 4.74537 6.43294 
450 1 1 3.94954 3.70631 6.40124 
452 1 1 3.27325 4.18612 7.29017 
456 1 1 4.53385 3.93973 7.33592 
471 1 1 4.04292 4.85841 7.41528 
454 1 1 5.61199 3.94316 6.45492 
57 1 1 6.39599 3.30348 0.133074 
475 1 1 5.43816 4.83969 7.2226 
460 1 1 6.49619 4.04689 7.24402 
458 1 1 7.35232 4.14086 6.41279 
459 1 1 7.13607 3.3224 7.31736 
61 1 1 0.0353349 5.0076 8.04029 
62 1 1 0.875013 5.7846 0.00746933 
463 1 1 0.705863 4.94482 7.1318 
464 1 1 -0.0120242 5.75276 7.17488 
65 1 1 1.68571 4.78856 8.05532 
466 1 1 2.45587 5.83905 6.40983 
467 1 1 2.52129 4.93173 7.20658 
468 1 1 1.64948 5.67919 7.08155 
487 1 1 2.48961 6.56404 7.20262 
472 1 1 3.38712 5.64534 7.13033 
70 1 1 3.92175 5.75113 8.0495 
491 1 1 4.03961 6.74309 7.37572 
477 1 1 6.46108 4.79377 6.43965 
474 1 1 5.53455 5.63699 6.46648 
476 1 1 4.77265 5.62685 7.40889 
74 1 1 5.64247 5.57068 0.0949595 
480 1 1 6.33924 5.5236 7.15643 
499 1 1 7.40378 5.361 6.42871 
479 1 1 7.14162 4.77876 7.34373 
497 1 1 6.41382 6.54559 6.42667 
78 1 1 7.12307 6.22425 7.1075 
81 1 1 7.8268 6.46569 7.96397 
82 1 1 0.72901 7.05024 8.05341 
483 1 1 0.694423 6.53376 7.23323 
485 1 1 1.53488 6.60915 6.29028 
482 1 1 0.64162 7.3161 6.42982 
85 1 1 1.65104 6.54694 0.010479 
488 1 1 1.67831 7.26046 7.31391 
86 1 1 2.43439 7.27398 7.97654 
492 1 1 3.26125 7.42736 7.3129 
90 1 1 3.96071 7.44464 0.0560542 
490 1 1 4.21299 7.43732 6.50934 
89 1 1 3.18851 6.53217 7.94398 
93 1 1 4.96184 6.3409 0.0949202 
495 1 1 5.62377 6.35679 7.26092 
496 1 1 4.92168 7.28546 7.43972 
494 1 1 5.66052 7.33341 6.64747 
415 1 1 5.61893 0.164662 7.3779 
98 1 1 7.28014 7.32244 0.148979 
419 1 1 7.32661 0.060175 7.24917 
500 1 1 6.6499 7.24008 7.30213 
484 1 1 7.94144 7.21679 7.33847 
