ITEM: TIMESTEP
49000
ITEM: NUMBER OF ATOMS
500
ITEM: BOX BOUNDS pp pp pp
0 8.07388
0 8.07388
0 8.07388
ITEM: ATOMS id type mass x y z 
8 1 1 1.63026 0.844119 0.933278 
102 1 1 0.737893 0.889353 1.68647 
23 1 1 0.939488 1.62937 0.94879 
121 1 1 8.00978 1.58226 1.59898 
2 1 1 0.730969 0.8957 0.115557 
12 1 1 3.01084 0.787408 0.809628 
106 1 1 2.37163 0.738909 1.60431 
27 1 1 2.329 1.63172 0.603824 
6 1 1 2.31057 0.703847 8.04459 
29 1 1 3.31009 1.70336 0.0240319 
11 1 1 4.01862 0.0228758 1.11582 
110 1 1 3.83583 0.847077 1.64446 
16 1 1 4.65593 0.706484 0.831971 
20 1 1 6.38921 0.78097 0.856461 
35 1 1 5.65769 1.55212 0.917802 
4 1 1 0.0931428 0.807913 0.878688 
39 1 1 7.24826 1.3504 0.865566 
21 1 1 7.97885 1.56549 7.90006 
118 1 1 7.39636 0.63094 1.75892 
137 1 1 6.55477 1.54925 1.64567 
28 1 1 1.53719 2.42675 0.876826 
22 1 1 0.66393 2.28278 8.08527 
26 1 1 2.30217 2.53589 8.04802 
47 1 1 2.31516 3.22384 0.841815 
129 1 1 3.03869 1.58044 1.49863 
126 1 1 2.44054 2.39081 1.60593 
31 1 1 4.07741 1.57176 0.873797 
32 1 1 3.17315 2.50925 0.729604 
30 1 1 4.19266 2.38936 0.0835335 
36 1 1 5.08777 2.39114 1.00601 
55 1 1 5.59117 3.35191 0.973206 
40 1 1 6.26101 2.44238 0.91711 
157 1 1 6.57098 3.18709 1.66439 
134 1 1 5.83035 2.383 1.83044 
24 1 1 7.90149 2.10319 0.7451 
38 1 1 7.09836 2.47645 0.229293 
57 1 1 6.3049 3.12671 0.124004 
43 1 1 0.746084 3.12755 0.677806 
48 1 1 1.6451 3.98339 0.777529 
44 1 1 8.00026 4.12502 0.663544 
45 1 1 1.5283 3.21456 7.91327 
42 1 1 0.60021 4.06614 8.09107 
67 1 1 2.24208 4.77576 0.940971 
46 1 1 2.40226 3.97894 0.020244 
52 1 1 3.14709 3.87221 0.720515 
49 1 1 3.40355 3.21126 8.01962 
53 1 1 5.02742 3.12227 -0.0121455 
51 1 1 4.23357 3.1984 0.865381 
50 1 1 3.93719 4.11056 0.143688 
71 1 1 4.11496 4.79965 0.875053 
150 1 1 4.24363 4.05042 1.61084 
56 1 1 4.84717 4.07949 0.720886 
153 1 1 4.93247 3.09629 1.72571 
54 1 1 5.77177 4.01563 0.0978605 
60 1 1 6.48298 3.92915 0.855838 
59 1 1 7.31189 3.33483 0.960906 
58 1 1 7.27817 4.03825 8.06206 
161 1 1 7.25046 4.92709 0.724833 
77 1 1 6.5334 5.02044 0.0617777 
63 1 1 0.646333 4.94516 0.602767 
68 1 1 1.51303 5.60158 1.02158 
81 1 1 0.0936811 6.42384 0.0287147 
72 1 1 3.31814 5.66582 0.876701 
189 1 1 3.37128 6.41806 1.67203 
65 1 1 1.67436 4.81998 7.96784 
69 1 1 3.2889 4.82706 0.207483 
66 1 1 2.47241 5.58067 8.07707 
91 1 1 4.07557 6.5092 0.802075 
93 1 1 4.95097 6.5508 0.167876 
169 1 1 3.39615 4.77109 1.60111 
76 1 1 5.03097 5.71534 0.76953 
75 1 1 5.77445 4.92858 0.790286 
95 1 1 5.83949 6.50935 0.721149 
177 1 1 6.51085 4.93458 1.63704 
73 1 1 4.95873 4.77426 8.0334 
74 1 1 5.74497 5.73951 7.92926 
64 1 1 0.0351715 5.66367 0.765221 
80 1 1 6.48198 5.64658 0.812118 
79 1 1 7.42061 5.62201 7.95406 
83 1 1 0.888514 6.42632 0.880669 
3 1 1 0.835075 0.183527 0.901619 
88 1 1 1.56758 7.27502 1.00123 
7 1 1 2.23047 8.03838 0.871324 
105 1 1 1.54657 0.0442754 1.65796 
87 1 1 2.36094 6.39547 0.893475 
92 1 1 3.14296 7.23247 0.753209 
193 1 1 4.9544 6.47647 1.71454 
90 1 1 3.97259 7.36186 0.204313 
15 1 1 5.54472 0.0834262 0.941236 
96 1 1 4.81606 7.43393 0.839031 
94 1 1 5.73066 7.40467 0.220977 
100 1 1 6.59324 7.25168 0.934045 
19 1 1 7.2276 0.0247826 0.806998 
84 1 1 8.08783 7.46886 0.862111 
99 1 1 7.31567 6.35984 0.603482 
98 1 1 7.34453 7.26762 0.0213964 
108 1 1 1.67657 0.975071 2.57967 
104 1 1 -0.00651155 0.780451 2.46442 
107 1 1 2.54542 0.0338352 2.53967 
112 1 1 3.14253 0.982891 2.43264 
205 1 1 1.58018 0.146777 3.11575 
111 1 1 3.95445 0.0898119 2.36842 
116 1 1 4.80566 0.849482 2.54519 
213 1 1 4.72938 8.0495 3.27125 
114 1 1 5.58243 0.865709 1.64265 
133 1 1 4.8585 1.56103 1.80289 
237 1 1 6.39553 1.49721 3.29733 
221 1 1 7.95415 1.57643 3.33054 
120 1 1 6.66273 0.874714 2.47493 
139 1 1 7.36936 1.60649 2.40735 
119 1 1 7.14961 8.1021 2.70976 
123 1 1 0.656112 1.66862 2.33753 
122 1 1 0.617218 2.49837 1.47471 
125 1 1 1.78679 1.60005 1.55811 
128 1 1 1.57415 2.3493 2.25891 
143 1 1 0.719146 3.3614 2.391 
145 1 1 1.49846 3.18332 1.48358 
127 1 1 2.37852 1.69715 2.54909 
226 1 1 2.48894 2.51546 3.19672 
147 1 1 2.34656 3.14506 2.51332 
249 1 1 3.2411 3.2718 3.19428 
233 1 1 4.82306 1.62286 3.30477 
130 1 1 4.17011 2.40242 1.65539 
132 1 1 3.22396 2.40931 2.18564 
131 1 1 3.93007 1.68109 2.44965 
151 1 1 4.02281 3.14059 2.37407 
229 1 1 3.26071 1.74665 3.29609 
135 1 1 5.73809 1.39829 2.43171 
136 1 1 4.9231 2.4514 2.42448 
234 1 1 5.58597 2.20549 3.32285 
155 1 1 5.87301 3.22808 2.46418 
124 1 1 8.01352 2.51943 2.33679 
140 1 1 6.56444 2.19665 2.52342 
138 1 1 7.26513 2.34509 1.53288 
141 1 1 0.0525836 3.447 1.5344 
238 1 1 7.37784 2.37307 3.31222 
163 1 1 0.0950552 4.86318 1.55236 
142 1 1 0.890439 3.95788 1.31822 
148 1 1 1.56166 3.85745 2.29454 
242 1 1 0.705769 4.57476 2.27003 
146 1 1 2.46425 3.83957 1.65995 
246 1 1 2.32248 3.85392 3.32327 
167 1 1 2.4852 4.61073 2.53964 
149 1 1 3.36261 3.24191 1.55749 
152 1 1 3.35536 4.0551 2.41601 
250 1 1 4.19926 3.90411 3.08725 
154 1 1 5.71616 4.11265 1.60625 
156 1 1 5.06926 4.01247 2.53394 
254 1 1 5.69696 3.90784 3.36671 
160 1 1 6.53857 3.98289 2.39875 
159 1 1 7.29487 3.17702 2.41398 
144 1 1 7.92727 4.03425 2.4004 
158 1 1 7.2142 4.22213 1.53591 
179 1 1 7.1899 4.90451 2.42 
165 1 1 1.56346 4.65581 1.63059 
162 1 1 0.659896 5.67972 1.77986 
164 1 1 7.99976 5.60276 2.4856 
265 1 1 1.70094 4.79604 3.15236 
168 1 1 1.54472 5.47788 2.23395 
183 1 1 0.401725 6.63909 2.33174 
166 1 1 2.48508 5.34969 1.78747 
185 1 1 1.43799 6.61887 1.85796 
187 1 1 2.40305 6.44598 2.36386 
285 1 1 1.53928 6.41569 3.03903 
171 1 1 4.23751 4.84684 2.32466 
273 1 1 4.96791 4.64331 3.36875 
170 1 1 4.31943 5.64488 1.49913 
172 1 1 3.31005 5.46094 2.32894 
270 1 1 4.13867 5.62853 3.19138 
191 1 1 4.17962 6.32917 2.40236 
289 1 1 3.23488 6.31915 3.21578 
174 1 1 5.77728 5.78846 1.6807 
173 1 1 5.06005 4.8854 1.57859 
175 1 1 5.7382 4.88558 2.51144 
176 1 1 5.05732 5.66876 2.49808 
180 1 1 6.50664 5.74489 2.46502 
274 1 1 5.86617 5.71902 3.28615 
197 1 1 6.63304 6.43724 1.61058 
178 1 1 7.35559 5.65231 1.70363 
199 1 1 7.38556 6.49365 2.48153 
278 1 1 7.28664 5.71587 3.21358 
182 1 1 0.762584 7.38271 1.65573 
103 1 1 0.805423 0.0172268 2.45829 
282 1 1 0.745698 7.26227 3.15456 
186 1 1 2.27754 7.35463 1.80837 
188 1 1 1.58547 7.37061 2.48435 
192 1 1 3.22259 7.03932 2.49264 
286 1 1 2.38595 7.27594 3.12303 
109 1 1 3.12685 8.03962 1.68047 
190 1 1 4.16306 7.28026 1.67836 
293 1 1 4.94131 6.34255 3.31944 
113 1 1 4.82248 0.130823 1.84114 
194 1 1 5.73093 7.23364 1.59901 
195 1 1 5.75022 6.52167 2.45907 
196 1 1 5.12387 7.35758 2.3553 
115 1 1 5.99002 0.0674013 2.44988 
198 1 1 7.33677 7.42108 1.51897 
101 1 1 0.075226 0.0322603 1.6614 
181 1 1 7.98912 6.50916 1.4884 
200 1 1 6.43856 7.2583 2.3364 
117 1 1 6.44499 0.0399164 1.5338 
184 1 1 7.86104 7.42475 2.39711 
202 1 1 0.712129 0.894875 3.33568 
223 1 1 0.74674 1.64376 4.18504 
225 1 1 1.4395 1.78592 3.27071 
201 1 1 8.08034 0.13875 3.32628 
302 1 1 0.905555 0.737848 4.9656 
206 1 1 2.51281 0.774509 3.21483 
208 1 1 1.47108 0.794101 4.11188 
207 1 1 2.41455 7.98622 3.92505 
212 1 1 3.1527 0.922524 4.15173 
306 1 1 2.23525 0.739884 4.94307 
210 1 1 3.77807 0.748087 3.11181 
211 1 1 4.09394 0.0770034 4.11185 
216 1 1 4.81345 0.817948 4.10582 
310 1 1 4.02257 0.779899 4.92994 
214 1 1 5.60771 0.73567 3.37145 
235 1 1 5.6125 1.54958 4.20721 
215 1 1 5.65507 0.0408431 4.21197 
204 1 1 0.0670868 0.883016 4.11602 
220 1 1 6.45403 0.859051 4.09553 
218 1 1 7.26573 0.879222 3.31132 
217 1 1 6.39883 0.022467 3.40182 
321 1 1 0.0412277 1.61893 4.98839 
222 1 1 0.517883 2.34459 3.29756 
243 1 1 0.662742 3.27313 4.18187 
228 1 1 1.67961 2.40906 3.97313 
322 1 1 0.80683 2.37095 5.10077 
227 1 1 2.30662 1.55784 4.04933 
247 1 1 2.45675 3.1837 4.12805 
325 1 1 1.49483 1.57958 4.9786 
326 1 1 2.43731 2.39552 5.03832 
230 1 1 4.02859 2.55684 3.26369 
232 1 1 3.2946 2.38726 4.13828 
231 1 1 4.05236 1.57459 3.98049 
236 1 1 4.77646 2.44228 4.05146 
255 1 1 5.68902 3.03577 4.04442 
240 1 1 6.53061 2.18759 3.98728 
257 1 1 6.56523 3.05683 3.11678 
239 1 1 7.32037 1.57303 4.23579 
224 1 1 0.0350965 2.39128 4.18038 
241 1 1 0.0215056 3.23777 3.14776 
259 1 1 7.19396 3.17875 4.05704 
245 1 1 1.39258 3.15054 3.22686 
345 1 1 1.55067 3.08843 4.84434 
244 1 1 0.742263 4.08717 3.3332 
261 1 1 0.0865223 4.76206 3.0623 
342 1 1 0.826013 4.06366 4.9537 
248 1 1 1.49111 3.97938 4.09255 
252 1 1 3.1534 4.11415 4.19731 
346 1 1 2.41149 4.08784 4.84368 
251 1 1 4.03232 3.27114 4.07521 
271 1 1 4.15444 4.88133 3.79155 
256 1 1 4.91007 3.92631 4.24411 
353 1 1 4.94275 3.03587 4.9407 
350 1 1 4.01287 3.97206 4.87172 
373 1 1 4.76281 4.76756 4.7971 
253 1 1 4.91396 3.24686 3.2228 
260 1 1 6.43059 4.02467 4.1967 
354 1 1 5.76019 4.07922 4.97144 
358 1 1 0.0174085 4.20023 4.06703 
258 1 1 7.25175 3.94355 3.23871 
262 1 1 0.789576 5.68412 3.22744 
263 1 1 0.923027 4.92979 3.91726 
264 1 1 0.012969 5.56097 4.02877 
283 1 1 0.910706 6.47497 4.04429 
361 1 1 0.106753 5.02073 4.90543 
266 1 1 2.43003 5.56272 3.08865 
268 1 1 1.67406 5.56015 4.1187 
267 1 1 2.29665 4.74718 3.97291 
366 1 1 2.58178 5.55214 4.75284 
269 1 1 3.23493 4.77497 3.26163 
369 1 1 3.56205 4.89755 4.73066 
272 1 1 3.35282 5.69706 4.06547 
276 1 1 4.94638 5.64273 4.13527 
393 1 1 4.95346 6.49665 4.80131 
275 1 1 5.81202 4.94265 3.95205 
295 1 1 5.75918 6.51063 4.13498 
374 1 1 5.73317 5.83582 4.91251 
277 1 1 6.46074 4.78822 3.13338 
279 1 1 7.32794 4.84422 3.9518 
280 1 1 6.48592 5.68183 4.19983 
299 1 1 7.23705 6.35123 4.03985 
378 1 1 7.32202 5.65721 4.81301 
377 1 1 6.19825 4.97612 4.88947 
203 1 1 0.824745 8.11282 3.99799 
281 1 1 8.05734 6.45333 3.25885 
284 1 1 0.147144 7.35067 4.08761 
382 1 1 0.958217 7.32668 4.79797 
209 1 1 3.26733 7.93098 3.18971 
287 1 1 2.32564 6.42944 3.71321 
288 1 1 1.63268 7.39005 3.86331 
305 1 1 1.69754 7.92909 4.88029 
292 1 1 3.24711 7.04126 3.92517 
290 1 1 4.26524 7.1503 2.99411 
291 1 1 4.07651 6.34806 3.94552 
296 1 1 5.01497 7.19926 4.03705 
294 1 1 5.71549 7.26432 3.21119 
300 1 1 6.47455 7.36388 4.11857 
394 1 1 5.6547 7.16037 4.9284 
297 1 1 6.55724 6.65123 3.3736 
219 1 1 7.41621 0.160189 4.08247 
298 1 1 7.32703 7.30115 3.41112 
323 1 1 0.788825 1.52489 5.76568 
308 1 1 1.54417 0.732159 5.83833 
312 1 1 3.02943 0.859387 5.78593 
329 1 1 3.18603 1.48531 5.04078 
405 1 1 1.5628 7.87183 6.50442 
307 1 1 2.50909 8.01064 5.69049 
406 1 1 2.23598 0.783795 6.57707 
410 1 1 4.04444 0.590396 6.3963 
333 1 1 4.66562 1.5951 4.83307 
314 1 1 5.56178 0.831178 4.89242 
316 1 1 4.83314 0.692829 5.61425 
320 1 1 6.39701 0.93311 5.73535 
337 1 1 6.56082 1.50269 4.8655 
414 1 1 5.58337 0.945467 6.45802 
304 1 1 8.05447 0.763242 5.78454 
318 1 1 7.38719 0.841571 5.08169 
339 1 1 7.26221 1.65346 5.70636 
319 1 1 7.01823 0.0580633 5.72868 
328 1 1 1.51712 2.36129 5.77995 
343 1 1 0.786284 3.24542 5.6092 
349 1 1 3.20446 3.29725 4.91452 
327 1 1 2.2867 1.55141 5.6914 
332 1 1 3.25962 2.42002 5.73766 
429 1 1 3.29755 1.68534 6.52557 
330 1 1 4.0345 2.48389 4.84234 
331 1 1 4.01435 1.58177 5.78941 
351 1 1 3.9309 3.30564 5.70873 
453 1 1 4.84203 3.20697 6.37653 
357 1 1 6.46197 3.22024 4.76677 
336 1 1 4.82926 2.27251 5.62916 
335 1 1 5.43205 1.4621 5.61629 
334 1 1 5.73783 2.41758 5.06801 
340 1 1 6.56743 2.53155 5.61483 
338 1 1 7.2658 2.47964 4.81665 
324 1 1 7.96325 2.62139 5.59054 
341 1 1 7.86909 3.44995 4.79887 
421 1 1 8.05905 1.57057 6.58777 
442 1 1 0.68687 3.97798 6.49029 
348 1 1 1.58177 3.98993 5.68193 
344 1 1 7.9603 4.00135 5.72876 
347 1 1 2.35398 3.28505 5.6525 
352 1 1 3.1827 4.10253 5.59341 
367 1 1 2.4794 4.93008 5.56589 
356 1 1 4.76714 4.00244 5.64259 
355 1 1 5.69333 3.28116 5.6502 
360 1 1 6.38797 4.16926 5.80319 
454 1 1 5.52315 4.05775 6.4001 
379 1 1 7.17296 4.23783 4.87739 
359 1 1 7.15343 3.39292 5.60988 
458 1 1 7.25611 3.95384 6.58132 
441 1 1 7.9748 3.24776 6.3554 
363 1 1 0.882601 4.90533 5.65632 
362 1 1 0.84861 5.70707 4.85535 
383 1 1 0.677085 6.93955 5.62404 
462 1 1 0.735317 5.92512 6.20949 
364 1 1 0.0389777 5.88664 5.48354 
481 1 1 8.05281 6.60535 6.4403 
365 1 1 1.61736 4.81928 4.85448 
385 1 1 1.66156 6.45248 4.70228 
368 1 1 1.72272 5.74053 5.45569 
372 1 1 3.25059 5.64359 5.54322 
387 1 1 2.54993 6.496 5.49389 
466 1 1 2.3605 5.69148 6.27209 
473 1 1 4.78901 4.78073 6.42222 
370 1 1 4.18713 5.7033 4.8591 
371 1 1 4.10101 4.84875 5.62055 
376 1 1 4.9223 5.67317 5.70908 
470 1 1 4.11608 5.53599 6.51018 
375 1 1 5.5878 4.92994 5.69326 
380 1 1 6.49798 5.62787 5.59307 
474 1 1 5.49208 5.64096 6.61368 
497 1 1 6.49639 6.52168 6.54368 
395 1 1 5.66511 6.54833 5.67657 
381 1 1 7.9925 6.54583 4.68273 
478 1 1 7.27852 4.75941 5.83236 
399 1 1 7.24173 6.57109 5.71826 
303 1 1 0.849039 -0.00647576 5.70647 
301 1 1 0.0926323 0.12236 4.88126 
388 1 1 1.69456 7.12659 5.5616 
401 1 1 7.9273 8.05693 6.56488 
482 1 1 0.670429 7.3527 6.67796 
386 1 1 2.55774 7.304 4.68395 
309 1 1 3.10666 0.0588545 4.75387 
409 1 1 3.21829 7.94496 6.54951 
485 1 1 1.59216 6.41914 6.42109 
486 1 1 2.49285 7.19277 6.51513 
313 1 1 4.76592 7.91151 4.88343 
311 1 1 4.01848 7.88404 5.52933 
391 1 1 4.10939 6.32552 5.68761 
389 1 1 3.30418 6.37623 4.7724 
390 1 1 3.8467 7.23693 4.73742 
392 1 1 3.19508 7.26756 5.56152 
396 1 1 4.8522 7.20251 5.68073 
397 1 1 6.57524 6.53351 4.91117 
315 1 1 5.63717 0.044761 5.63903 
317 1 1 6.56116 0.17828 4.86334 
494 1 1 5.65526 7.25422 6.43681 
384 1 1 7.90338 7.4902 5.73841 
398 1 1 7.27342 7.48327 4.79148 
400 1 1 6.45604 7.25921 5.63138 
5 1 1 1.53537 8.03818 8.05799 
425 1 1 1.4724 1.55063 6.45743 
402 1 1 0.732727 0.687499 6.51626 
423 1 1 0.820401 1.57503 7.26811 
408 1 1 1.54217 0.903957 7.33333 
404 1 1 7.9998 0.760174 7.3053 
412 1 1 3.102 0.974119 7.24283 
407 1 1 2.4161 8.00944 7.1906 
427 1 1 2.26952 1.6751 7.2919 
10 1 1 4.0293 0.734332 8.05486 
416 1 1 4.82074 0.749369 7.20274 
431 1 1 4.20071 1.59368 7.27896 
14 1 1 5.48358 0.865501 0.0783106 
37 1 1 6.44705 1.66124 0.156925 
435 1 1 5.69277 1.61279 7.41777 
18 1 1 7.22541 0.754217 8.00557 
437 1 1 6.45344 1.63649 6.4955 
418 1 1 7.25827 0.808015 6.54495 
420 1 1 6.43766 0.887627 7.32428 
439 1 1 7.17799 1.66993 7.24309 
1 1 1 8.06131 0.166984 0.133686 
41 1 1 7.95815 3.05927 0.116165 
422 1 1 0.672664 2.36101 6.36159 
25 1 1 1.49283 1.67661 8.03817 
428 1 1 1.52719 2.36768 7.12146 
443 1 1 0.75067 3.12409 7.21853 
445 1 1 1.52855 3.21467 6.37204 
426 1 1 2.33754 2.32651 6.39463 
432 1 1 3.33506 2.47754 7.29448 
33 1 1 4.83617 1.64034 0.0945955 
433 1 1 4.73511 1.5456 6.4476 
430 1 1 4.06804 2.39866 6.50169 
434 1 1 5.62415 2.34031 6.42744 
34 1 1 5.64447 2.3329 0.103523 
436 1 1 4.87346 2.33636 7.37733 
440 1 1 6.4368 2.31709 7.40955 
424 1 1 7.92684 2.51868 7.27751 
438 1 1 7.32277 2.3965 6.45518 
61 1 1 0.138991 4.97729 7.62556 
463 1 1 0.993715 4.93824 6.99554 
444 1 1 7.95649 3.91376 7.26902 
447 1 1 2.42434 3.25651 7.24539 
465 1 1 1.69931 4.97534 6.2128 
448 1 1 1.53892 4.10492 7.09454 
446 1 1 2.40019 3.9732 6.42065 
452 1 1 3.27365 4.05084 7.30653 
469 1 1 3.29329 4.8788 6.35202 
450 1 1 4.05088 4.00385 6.48866 
449 1 1 3.18347 3.19562 6.41291 
451 1 1 4.1605 3.18283 7.23016 
456 1 1 4.80203 3.88409 7.25801 
455 1 1 5.73863 3.26622 7.16139 
460 1 1 6.40222 4.08513 7.18361 
457 1 1 6.42939 3.21462 6.47324 
459 1 1 7.11326 3.27701 7.4399 
479 1 1 7.18224 4.94195 7.23389 
62 1 1 0.93089 5.72393 7.95961 
483 1 1 0.856059 6.54274 7.30247 
461 1 1 0.0896175 4.86953 6.44534 
464 1 1 0.115694 5.76784 7.01491 
468 1 1 1.69962 5.76289 7.18134 
467 1 1 2.44064 4.80005 7.15621 
472 1 1 3.18209 5.62739 7.31708 
489 1 1 3.19003 6.48889 6.4666 
487 1 1 2.49309 6.37734 7.20452 
471 1 1 4.17564 4.77636 7.33369 
70 1 1 4.11297 5.51427 0.217272 
476 1 1 4.84561 5.69611 7.53494 
477 1 1 6.44179 5.04387 6.41626 
475 1 1 5.79396 4.94123 7.31922 
97 1 1 6.47724 6.49545 8.04702 
499 1 1 7.35693 5.67064 6.45406 
480 1 1 6.56126 5.75174 7.28546 
78 1 1 7.28797 6.53991 7.3318 
82 1 1 0.815164 7.14362 0.0307107 
403 1 1 0.645761 0.0192982 7.33048 
484 1 1 7.95354 7.30373 7.30077 
86 1 1 2.47859 7.25085 8.03803 
85 1 1 1.69937 6.49153 7.97896 
89 1 1 3.15606 6.27983 0.0714927 
488 1 1 1.63791 7.23998 7.28615 
9 1 1 3.26328 0.0127813 0.144979 
411 1 1 3.9187 8.02314 7.43746 
492 1 1 3.35039 7.14442 7.37367 
491 1 1 3.98118 6.1896 7.3087 
490 1 1 3.99148 7.31389 6.42581 
493 1 1 4.73381 6.42406 6.54208 
13 1 1 4.83638 0.0814859 7.90596 
495 1 1 5.69684 6.71499 7.38244 
413 1 1 4.94293 0.100334 6.48953 
496 1 1 4.69419 7.08411 7.31074 
17 1 1 6.2892 0.0894104 8.00228 
415 1 1 5.56875 7.98959 7.18941 
417 1 1 6.34336 8.10896 6.3946 
498 1 1 7.08359 7.37992 6.55928 
500 1 1 6.4868 7.31569 7.40315 
419 1 1 7.24695 8.03598 7.42778 
