ITEM: TIMESTEP
42000
ITEM: NUMBER OF ATOMS
500
ITEM: BOX BOUNDS pp pp pp
0 8.07388
0 8.07388
0 8.07388
ITEM: ATOMS id type mass x y z 
23 1 1 0.811802 1.5198 0.782962 
3 1 1 0.903624 0.00906683 0.851314 
2 1 1 0.967488 0.536736 8.0615 
25 1 1 1.60055 1.55054 0.115018 
5 1 1 1.6537 7.98521 7.98164 
8 1 1 1.62467 0.740613 0.821252 
6 1 1 2.24298 0.719746 7.85542 
12 1 1 3.3406 0.700077 1.01616 
10 1 1 4.01426 0.869432 7.98622 
110 1 1 4.29213 0.80901 1.70143 
11 1 1 4.03812 8.00276 0.681897 
13 1 1 4.80439 -0.00324144 7.98717 
16 1 1 4.83851 0.832902 0.694072 
20 1 1 6.38769 1.02983 0.940056 
15 1 1 5.66863 0.0452231 0.812715 
35 1 1 5.74466 1.81047 0.847458 
14 1 1 5.71395 0.886797 0.112687 
4 1 1 8.03565 0.766343 0.855701 
18 1 1 7.2317 0.805579 0.17559 
21 1 1 0.0193294 1.53941 -0.00391879 
37 1 1 6.52666 1.60554 8.04835 
39 1 1 7.34161 1.65555 0.794368 
19 1 1 7.26489 8.05432 0.895454 
1 1 1 0.0472784 0.0376932 0.0173043 
22 1 1 0.884346 2.40395 8.03999 
28 1 1 1.61964 2.32293 0.742561 
43 1 1 0.691171 3.27392 0.731656 
24 1 1 0.0356828 2.39344 0.768196 
27 1 1 2.49233 1.47058 0.551346 
32 1 1 3.26598 2.27232 0.698964 
26 1 1 2.43371 2.47235 0.163472 
125 1 1 1.59967 1.52783 1.46221 
129 1 1 3.41208 1.75943 1.71172 
29 1 1 3.2286 1.4981 7.81432 
31 1 1 4.15084 1.5984 0.85669 
51 1 1 4.14775 3.25774 0.745856 
33 1 1 4.79422 1.65403 8.02498 
36 1 1 4.85303 2.5367 0.695702 
55 1 1 5.68097 3.17592 0.818635 
34 1 1 5.80238 2.26779 7.99273 
153 1 1 4.8676 3.20838 1.45529 
134 1 1 5.57376 2.40533 1.74625 
40 1 1 6.59584 2.36097 0.665855 
38 1 1 7.4181 2.35916 8.01837 
48 1 1 1.46575 3.88509 0.768733 
42 1 1 0.694461 4.05208 0.042249 
44 1 1 8.00738 4.016 0.981293 
163 1 1 0.0756834 4.6332 1.84855 
65 1 1 1.44195 4.92371 0.0457908 
165 1 1 1.55843 4.74471 1.57908 
61 1 1 0.226248 4.96462 0.106507 
45 1 1 1.73324 3.12351 0.0321564 
47 1 1 2.39514 3.25505 0.781932 
46 1 1 2.33995 4.03536 0.056247 
146 1 1 2.23034 4.05149 1.48749 
169 1 1 3.06813 4.73255 1.71402 
52 1 1 3.17775 4.05991 0.83373 
56 1 1 4.89488 4.06195 0.857276 
71 1 1 3.9397 4.81321 0.791826 
75 1 1 5.64945 4.77918 0.647395 
154 1 1 5.70628 4.02958 1.48056 
59 1 1 7.41768 3.15586 0.824159 
60 1 1 6.62886 3.91756 0.788318 
161 1 1 7.25556 4.77295 0.773515 
157 1 1 6.51585 3.0823 1.48012 
58 1 1 7.382 4.08254 8.0161 
63 1 1 0.696699 4.6991 1.01928 
162 1 1 0.707801 5.57437 1.71264 
68 1 1 1.51276 5.54352 0.865888 
83 1 1 0.802719 6.46888 0.850199 
67 1 1 2.29209 4.84762 0.882907 
72 1 1 3.16362 5.52415 0.967607 
89 1 1 3.31964 6.39238 8.0595 
87 1 1 2.51142 6.50672 0.632278 
91 1 1 3.9634 6.37675 0.766583 
170 1 1 3.99891 5.66379 1.69088 
76 1 1 4.71035 5.73828 0.887219 
193 1 1 4.80149 6.37185 1.60479 
80 1 1 6.6444 5.6239 0.810043 
174 1 1 5.71832 5.4571 1.90234 
74 1 1 5.5629 5.75587 8.07643 
64 1 1 8.01868 5.65 1.07261 
197 1 1 6.48053 6.54549 1.58932 
88 1 1 1.66394 7.24568 0.905309 
185 1 1 1.58283 6.41679 1.54815 
85 1 1 1.55009 6.61186 0.0673235 
7 1 1 2.31544 0.0160319 0.771114 
9 1 1 3.19452 0.213396 0.0843449 
92 1 1 3.36328 7.1226 0.688742 
109 1 1 3.35088 7.92203 1.50593 
86 1 1 2.53008 7.30692 0.0310474 
90 1 1 4.15338 7.24289 7.862 
190 1 1 4.17978 7.12755 1.71634 
95 1 1 5.58424 6.14453 1.0059 
96 1 1 4.77885 7.18239 0.835141 
113 1 1 4.90063 7.97955 1.5184 
194 1 1 5.65588 7.33837 1.70544 
94 1 1 5.39512 7.23433 7.97459 
181 1 1 0.1183 6.52547 1.66778 
99 1 1 7.37019 6.50555 1.04668 
100 1 1 6.297 7.28051 0.780748 
84 1 1 0.0107884 7.32096 0.999585 
102 1 1 0.756706 0.749519 1.54186 
123 1 1 0.910995 1.69667 2.36225 
101 1 1 8.04462 0.0377185 1.7498 
202 1 1 0.815424 0.792737 3.07123 
106 1 1 2.4572 0.996101 1.51802 
108 1 1 1.75345 0.847821 2.44929 
112 1 1 3.45564 0.854149 2.33597 
131 1 1 4.09978 1.75323 2.59169 
116 1 1 5.00276 0.948187 2.52968 
114 1 1 5.49323 0.996232 1.7227 
117 1 1 6.55551 8.05358 1.66082 
118 1 1 7.17094 0.857336 1.67613 
104 1 1 0.0230898 0.909994 2.36 
120 1 1 6.41151 0.729637 2.39147 
121 1 1 0.237173 1.6506 1.61821 
122 1 1 0.993389 2.42699 1.47172 
221 1 1 8.05339 1.55126 3.20717 
143 1 1 0.847336 3.21969 2.54311 
141 1 1 7.90479 3.11701 1.69849 
145 1 1 1.56071 3.22923 1.59314 
128 1 1 1.55745 2.48633 2.40701 
126 1 1 2.48952 2.30434 1.39286 
127 1 1 2.51224 1.67306 2.31124 
249 1 1 3.13197 3.20339 3.35794 
130 1 1 4.18425 2.47217 1.46106 
132 1 1 3.22701 2.4174 2.43769 
133 1 1 4.8128 1.7254 1.67626 
230 1 1 3.93044 2.46656 3.2259 
136 1 1 4.85235 2.4703 2.39227 
135 1 1 5.6802 1.74972 2.58839 
140 1 1 6.44896 2.50744 2.40247 
155 1 1 5.51588 3.16933 2.59061 
137 1 1 6.36178 1.77591 1.66816 
139 1 1 7.11449 1.47821 2.53981 
138 1 1 7.26383 2.41643 1.89835 
124 1 1 0.0728835 2.32463 2.39395 
159 1 1 7.20316 3.25842 2.56207 
238 1 1 7.26334 2.24887 3.17788 
142 1 1 0.660454 3.88936 1.6906 
148 1 1 1.57751 3.9494 2.38149 
242 1 1 0.925994 4.83061 2.42682 
149 1 1 3.2576 3.16742 1.54353 
147 1 1 2.39139 3.28786 2.3664 
167 1 1 2.34924 4.78689 2.43809 
173 1 1 4.91587 4.84643 1.6302 
151 1 1 4.06086 3.1185 2.3377 
152 1 1 3.35888 3.87516 2.37394 
150 1 1 4.04648 4.0284 1.49494 
171 1 1 4.12394 4.86197 2.43711 
156 1 1 4.62619 3.98222 2.44148 
160 1 1 6.25054 3.89578 2.45329 
175 1 1 5.58939 4.60616 2.51702 
254 1 1 5.51541 3.88011 3.32158 
158 1 1 7.05682 4.01904 1.74843 
144 1 1 0.0576092 3.84888 2.60694 
177 1 1 6.38444 4.85253 1.44875 
179 1 1 7.15164 4.68888 2.45096 
168 1 1 1.65689 5.60945 2.3945 
183 1 1 0.870798 6.51756 2.37764 
262 1 1 0.896816 5.69563 3.10693 
285 1 1 1.5532 6.55631 3.19524 
166 1 1 2.26797 5.59245 1.67892 
187 1 1 2.37582 6.47675 2.39803 
189 1 1 3.2882 6.42701 1.61331 
172 1 1 3.33302 5.60886 2.48784 
270 1 1 4.0115 5.71162 3.19343 
176 1 1 4.82884 5.69832 2.40735 
273 1 1 4.87061 4.77832 3.20047 
289 1 1 3.21566 6.40826 3.24577 
195 1 1 5.7532 6.40077 2.49531 
274 1 1 5.60896 5.59707 3.24932 
178 1 1 7.32815 5.35834 1.7954 
164 1 1 0.0824177 5.64717 2.49316 
180 1 1 6.502 5.47895 2.42327 
182 1 1 0.899905 7.21408 1.62326 
103 1 1 0.915184 8.04405 2.3521 
282 1 1 0.740136 7.20484 3.27611 
205 1 1 1.6592 0.108926 3.21715 
188 1 1 1.94631 7.6319 2.41091 
201 1 1 0.137556 8.04621 3.14675 
186 1 1 2.46781 7.1798 1.63317 
107 1 1 2.74719 0.185782 2.21788 
105 1 1 1.62012 0.142777 1.58393 
286 1 1 2.45175 7.23413 3.14712 
111 1 1 4.06176 8.07029 2.2745 
192 1 1 3.3586 7.28257 2.43703 
191 1 1 4.10392 6.44226 2.54602 
196 1 1 4.92098 7.14423 2.46281 
290 1 1 4.18054 7.1089 3.28534 
209 1 1 3.1331 0.0070964 3.32655 
115 1 1 5.64559 8.01872 2.49899 
297 1 1 6.44435 6.46728 3.30422 
213 1 1 4.88838 7.94557 3.40359 
293 1 1 4.96407 6.39106 3.22102 
294 1 1 5.6351 7.13946 3.42146 
198 1 1 7.36353 7.31693 1.75642 
200 1 1 6.44411 7.12673 2.46913 
119 1 1 7.35023 0.0209351 2.46288 
184 1 1 0.155651 7.28503 2.38785 
199 1 1 7.17881 6.35807 2.43319 
281 1 1 0.0791402 6.43988 3.34836 
223 1 1 0.800433 1.58243 4.01679 
204 1 1 0.0143616 0.798479 3.95894 
302 1 1 0.699773 0.946353 4.90506 
208 1 1 1.73424 0.958468 4.07842 
206 1 1 2.3962 0.948504 3.26954 
227 1 1 2.46108 1.6554 4.10388 
306 1 1 2.42783 0.869668 4.88255 
212 1 1 3.14236 0.853966 4.03291 
210 1 1 4.03844 0.494781 3.25222 
211 1 1 3.99622 7.93081 4.0559 
231 1 1 3.9785 1.60653 4.03394 
214 1 1 5.68102 0.81453 3.24578 
216 1 1 4.7534 0.636619 4.08728 
314 1 1 5.56768 0.609562 4.91434 
237 1 1 6.50698 1.61436 3.22467 
218 1 1 7.0781 0.712133 3.23241 
220 1 1 6.4378 0.878629 4.04667 
239 1 1 7.38211 1.62731 4.10751 
318 1 1 7.2658 0.848133 4.83822 
222 1 1 0.783287 2.32637 3.22792 
224 1 1 8.08385 2.30251 3.90297 
243 1 1 0.766913 3.27378 4.13704 
341 1 1 7.97373 3.16354 4.82474 
225 1 1 1.68831 1.62046 3.24397 
228 1 1 1.67652 2.31318 4.06086 
226 1 1 2.39182 2.33137 3.17885 
247 1 1 2.24336 3.32682 4.0559 
245 1 1 1.58475 3.17065 3.27772 
345 1 1 1.67797 3.2608 4.96343 
229 1 1 3.19341 1.64833 3.15334 
232 1 1 3.31642 2.36862 4.04938 
236 1 1 4.7367 2.42311 4.16293 
253 1 1 4.72594 3.24944 3.16998 
233 1 1 4.86261 1.53488 3.36995 
235 1 1 5.42242 1.49594 4.27139 
234 1 1 5.65567 2.37943 3.35004 
240 1 1 6.48459 2.24453 4.08362 
338 1 1 7.2238 2.33661 4.94083 
259 1 1 7.26614 2.9778 4.04772 
244 1 1 0.916389 4.08998 3.21991 
342 1 1 0.879631 4.00235 4.98005 
265 1 1 1.64164 4.90693 3.2903 
248 1 1 1.5687 3.97277 4.01825 
246 1 1 2.26849 4.07005 3.15895 
346 1 1 2.40958 3.99076 4.99102 
251 1 1 3.94419 3.21469 4.10698 
353 1 1 4.8562 3.24163 4.99309 
252 1 1 3.11819 4.09055 4.15534 
250 1 1 3.81413 4.17677 3.22847 
256 1 1 4.69447 3.89136 4.11161 
255 1 1 5.58631 3.20722 4.16469 
260 1 1 6.43826 4.00092 4.17331 
275 1 1 5.62896 4.64995 4.10982 
241 1 1 0.0937408 3.14254 3.38208 
358 1 1 0.0710251 3.98364 4.03115 
258 1 1 7.33572 4.06337 3.47143 
257 1 1 6.35341 3.14118 3.41391 
379 1 1 7.1832 3.97444 4.85979 
263 1 1 0.783792 5.0007 3.89741 
264 1 1 8.04312 5.69001 3.92702 
268 1 1 1.59362 5.7237 4.17195 
361 1 1 0.120796 4.9389 4.84264 
362 1 1 0.763376 5.81544 4.9339 
381 1 1 0.0941496 6.64248 4.81177 
267 1 1 2.24946 4.74745 4.0622 
266 1 1 2.52053 5.6784 3.20329 
287 1 1 2.34698 6.45348 3.94741 
385 1 1 1.59749 6.59287 4.70791 
269 1 1 3.0795 4.80016 3.47436 
271 1 1 4.04062 4.85058 4.04924 
272 1 1 3.12761 5.63743 4.01303 
291 1 1 3.98742 6.33853 4.1299 
277 1 1 6.45342 4.78082 3.53349 
276 1 1 4.77368 5.65135 3.94567 
280 1 1 6.4825 5.66143 4.03209 
261 1 1 0.0770612 4.84145 3.18377 
278 1 1 7.24662 5.60286 3.18965 
279 1 1 7.32363 4.89517 3.96676 
397 1 1 6.52368 6.28638 4.81866 
203 1 1 0.847288 0.104 3.98574 
283 1 1 0.820863 6.52598 4.01516 
288 1 1 1.58537 7.37961 3.91415 
301 1 1 7.97259 0.00810229 4.79855 
207 1 1 2.38748 0.027211 3.9879 
386 1 1 2.43192 7.27368 4.9347 
305 1 1 1.65984 0.175319 4.78843 
292 1 1 3.22789 7.21298 4.02527 
296 1 1 4.79603 7.31681 4.23222 
309 1 1 3.08682 0.0648627 4.79824 
217 1 1 6.41906 7.862 3.16495 
215 1 1 5.76597 0.0185382 4.14063 
295 1 1 5.67803 6.49816 4.30654 
317 1 1 6.62809 0.0597061 4.75472 
394 1 1 5.94808 7.36831 4.84619 
298 1 1 7.55353 7.14504 3.07531 
219 1 1 7.27951 8.00553 3.92492 
299 1 1 7.36031 6.44159 3.99673 
284 1 1 0.0581381 7.4143 3.95755 
300 1 1 6.5722 7.16909 3.93892 
398 1 1 7.43639 7.2459 4.64483 
323 1 1 0.734383 1.64431 5.6767 
321 1 1 0.0315654 1.73018 4.89846 
325 1 1 1.61966 1.641 4.93272 
329 1 1 3.20741 1.70816 4.8385 
308 1 1 1.53328 0.875644 5.69236 
327 1 1 2.38051 1.77789 5.65358 
312 1 1 3.18647 0.806823 5.54786 
405 1 1 1.59264 7.97618 6.27972 
310 1 1 3.90881 0.823677 4.79139 
331 1 1 3.88036 1.58372 5.88899 
316 1 1 4.69216 0.756529 5.63874 
320 1 1 6.32855 0.851735 5.84516 
335 1 1 5.69343 1.58385 5.67748 
414 1 1 5.48109 0.805767 6.39705 
315 1 1 5.69422 7.93668 5.68471 
304 1 1 7.96881 0.954941 5.74715 
401 1 1 0.0626424 8.03372 6.52913 
421 1 1 8.05372 1.56981 6.51094 
319 1 1 7.3597 0.144826 5.72467 
418 1 1 7.2739 0.886282 6.53549 
339 1 1 7.12974 1.56152 5.59004 
322 1 1 0.747667 2.40243 4.87888 
422 1 1 0.664225 2.51575 6.24612 
324 1 1 8.01328 2.41097 5.59394 
343 1 1 0.868361 3.25023 5.60016 
328 1 1 1.58777 2.48105 5.6316 
326 1 1 2.48642 2.56019 4.87925 
332 1 1 3.30162 2.62128 5.61119 
425 1 1 1.5493 1.61344 6.43565 
333 1 1 4.56496 1.52365 4.99101 
330 1 1 4.10328 2.39806 5.06083 
351 1 1 3.96072 3.26615 5.74958 
336 1 1 4.95554 2.37783 5.77066 
334 1 1 5.60821 2.45603 4.89529 
434 1 1 5.67529 2.32847 6.4125 
357 1 1 6.41757 3.13639 4.85157 
337 1 1 6.37236 1.56687 4.95313 
457 1 1 6.52543 3.13759 6.32268 
340 1 1 6.36566 2.36859 5.61483 
365 1 1 1.50981 4.80167 4.81764 
344 1 1 8.03431 4.02697 5.46707 
348 1 1 1.62371 3.97019 5.69623 
442 1 1 0.686378 3.98061 6.33284 
349 1 1 3.19065 3.30652 4.81063 
347 1 1 2.34248 3.23399 5.79508 
367 1 1 2.45338 4.85077 5.77581 
446 1 1 2.41075 4.08652 6.66049 
352 1 1 3.07587 4.03692 5.89267 
350 1 1 3.9894 4.06463 4.9374 
355 1 1 5.59859 3.21122 5.72707 
356 1 1 4.89884 4.04864 5.70615 
354 1 1 5.79628 4.01321 5.08706 
360 1 1 6.65297 4.12336 5.7791 
359 1 1 7.24568 3.21195 5.63017 
363 1 1 0.521867 5.04001 5.77265 
462 1 1 0.790093 5.83205 6.44092 
364 1 1 8.00442 5.89044 5.68427 
368 1 1 1.67149 5.61303 5.78289 
366 1 1 2.3275 5.50412 4.84726 
466 1 1 2.42491 5.62424 6.56216 
372 1 1 3.06291 5.74569 5.65308 
465 1 1 1.53178 4.72267 6.45247 
369 1 1 3.24432 4.87296 4.77377 
371 1 1 3.70786 4.8813 5.64794 
370 1 1 4.07068 5.56116 4.83918 
376 1 1 4.9517 5.61373 5.63455 
373 1 1 4.96149 4.63111 4.88945 
389 1 1 2.92347 6.39402 4.80431 
374 1 1 5.68381 5.5629 4.84068 
393 1 1 4.73998 6.39623 4.81185 
375 1 1 5.75564 4.97845 5.69937 
473 1 1 4.70842 4.90089 6.49915 
474 1 1 5.64655 5.77052 6.63332 
378 1 1 7.45742 5.69016 4.79903 
377 1 1 6.53064 4.91708 4.8944 
478 1 1 7.39871 4.9656 5.63732 
477 1 1 6.51825 4.93993 6.58068 
380 1 1 6.49617 5.65171 5.76928 
382 1 1 0.861958 7.45378 4.73091 
303 1 1 0.693408 8.05966 5.65169 
383 1 1 0.796086 6.5712 5.57017 
481 1 1 8.03192 6.62954 6.51394 
482 1 1 0.711444 7.28699 6.28351 
307 1 1 2.48406 0.0495963 5.60398 
387 1 1 2.30061 6.39073 5.56875 
388 1 1 1.60208 7.20584 5.52567 
485 1 1 1.60721 6.66742 6.4541 
392 1 1 3.2625 7.25709 5.70079 
489 1 1 3.19148 6.46285 6.58393 
313 1 1 4.63487 8.02119 4.89866 
311 1 1 3.85016 8.04293 5.73627 
390 1 1 3.83205 7.2018 4.83202 
391 1 1 4.04849 6.53142 5.77198 
395 1 1 5.93588 6.61057 5.71242 
396 1 1 4.8984 7.37764 5.75926 
400 1 1 6.58808 7.39498 5.64732 
494 1 1 5.68346 7.28758 6.45424 
497 1 1 6.46988 6.75975 6.67071 
493 1 1 4.92306 6.46688 6.30928 
384 1 1 8.06736 7.31525 5.58582 
399 1 1 7.16767 6.50721 5.71642 
498 1 1 7.2676 7.34292 6.64588 
402 1 1 0.796753 0.798887 6.40991 
403 1 1 0.925665 7.98821 7.22273 
404 1 1 0.102192 0.758571 7.18218 
406 1 1 2.42423 0.788969 6.35011 
408 1 1 1.57278 0.673837 6.9984 
412 1 1 3.21806 0.779532 7.10801 
429 1 1 3.05463 1.61612 6.57942 
433 1 1 4.77769 1.6165 6.47017 
410 1 1 3.95807 0.735348 6.37878 
413 1 1 4.77262 0.052885 6.53669 
431 1 1 4.02226 1.68903 6.97484 
411 1 1 3.99604 0.103911 7.24729 
416 1 1 4.77109 0.871534 7.32535 
435 1 1 5.54945 1.53448 7.10522 
17 1 1 6.48159 0.123216 0.134278 
420 1 1 6.49365 0.773096 7.34316 
419 1 1 7.33375 0.246086 7.41246 
439 1 1 7.38948 1.46149 7.33322 
423 1 1 0.875706 1.4333 7.41928 
41 1 1 0.0504547 3.1777 8.05977 
443 1 1 0.801333 3.19637 7.23292 
424 1 1 0.143904 2.33016 7.34015 
426 1 1 2.38062 2.41031 6.58233 
427 1 1 2.27447 1.76626 7.34886 
428 1 1 1.43877 2.32778 7.20227 
447 1 1 2.33364 3.26908 7.27893 
30 1 1 4.00103 2.17091 7.94 
449 1 1 3.29501 3.29213 6.63739 
430 1 1 4.03898 2.51161 6.39538 
432 1 1 3.21152 2.45164 7.21394 
451 1 1 4.13818 3.12592 7.51253 
453 1 1 5.08989 3.18539 6.60873 
436 1 1 4.99361 2.35855 7.25392 
455 1 1 5.82749 3.01745 7.27225 
440 1 1 6.73301 2.43517 7.18169 
53 1 1 5.07043 3.03883 7.96368 
437 1 1 6.5142 1.65716 6.39223 
438 1 1 7.34885 2.42497 6.4098 
441 1 1 8.03864 3.17256 6.46136 
57 1 1 6.51858 3.16935 8.07082 
459 1 1 7.31512 3.36556 7.21738 
445 1 1 1.60751 3.31217 6.42371 
444 1 1 0.107649 4.04548 7.18362 
463 1 1 0.78726 4.88746 7.15458 
448 1 1 1.55288 3.91637 7.35741 
467 1 1 2.28658 4.91435 7.2528 
49 1 1 3.1697 3.28658 0.0379403 
50 1 1 3.97506 4.16933 0.0103739 
450 1 1 3.94742 4.06715 6.42473 
452 1 1 3.10707 4.08649 7.37777 
454 1 1 5.77215 4.11934 6.34181 
456 1 1 5.0374 4.08322 7.17479 
54 1 1 5.67459 4.03147 8.05121 
77 1 1 6.55822 4.73915 8.01281 
460 1 1 6.45936 4.00863 7.23523 
458 1 1 7.39409 4.175 6.58407 
479 1 1 7.20593 5.03184 7.28905 
461 1 1 7.98277 5.20664 6.5104 
62 1 1 0.806812 5.83144 8.02841 
464 1 1 0.117503 5.95046 7.31237 
69 1 1 3.23312 4.85834 0.0561416 
66 1 1 2.33129 5.5722 0.0274656 
469 1 1 3.11608 4.84259 6.53302 
468 1 1 1.61479 5.93213 7.33139 
472 1 1 3.19225 5.62899 7.32858 
70 1 1 4.04063 5.58047 8.01802 
470 1 1 4.17236 5.76041 6.35786 
471 1 1 3.90978 4.90241 7.29012 
476 1 1 4.84998 5.66305 7.31653 
491 1 1 4.13757 6.3252 7.24134 
73 1 1 4.79197 4.80657 8.01614 
475 1 1 5.65231 4.9195 7.25306 
93 1 1 4.75141 6.39952 8.03533 
499 1 1 7.31695 5.92933 6.63544 
480 1 1 6.3533 5.78804 7.36389 
79 1 1 7.36826 5.83882 0.0451092 
483 1 1 0.825389 6.70515 7.24838 
82 1 1 0.828775 7.32637 0.13251 
484 1 1 0.0949509 7.34989 7.27219 
488 1 1 1.7005 7.28421 7.26918 
409 1 1 3.22779 7.99841 6.45229 
407 1 1 2.41366 0.0105923 7.07626 
486 1 1 2.47384 7.27468 6.44651 
487 1 1 2.58055 6.5039 7.3645 
492 1 1 3.2165 7.39928 7.32937 
490 1 1 4.01594 7.27981 6.4895 
496 1 1 4.82198 7.23272 7.1647 
415 1 1 5.66271 0.230965 7.41231 
495 1 1 5.55448 6.53336 7.24473 
417 1 1 6.33425 7.96603 6.69165 
97 1 1 6.548 6.50122 0.216218 
500 1 1 6.24879 7.38372 7.4091 
81 1 1 8.03455 6.70965 0.194942 
98 1 1 7.15644 7.44344 7.98984 
78 1 1 7.33286 6.67579 7.43176 
