ITEM: TIMESTEP
23000
ITEM: NUMBER OF ATOMS
500
ITEM: BOX BOUNDS pp pp pp
0 8.07388
0 8.07388
0 8.07388
ITEM: ATOMS id type mass x y z 
3 1 1 0.802859 0.131299 0.796512 
102 1 1 0.752709 0.948343 1.49077 
23 1 1 0.762183 1.82029 0.708266 
5 1 1 1.58714 0.165313 8.04414 
125 1 1 1.63312 1.75186 1.49004 
121 1 1 7.98991 1.70866 1.66753 
2 1 1 0.736998 0.990723 0.0154915 
8 1 1 1.66917 0.760898 0.894994 
27 1 1 2.36009 1.49786 0.731872 
7 1 1 2.48788 0.20553 0.785506 
25 1 1 1.59614 1.61979 -0.0300128 
12 1 1 3.42258 0.783008 0.72423 
10 1 1 4.14644 0.763104 8.02541 
31 1 1 3.96113 1.54464 1.056 
29 1 1 3.428 1.55677 8.04217 
16 1 1 4.81447 0.894576 0.918902 
113 1 1 4.7509 8.04822 1.57999 
20 1 1 6.4017 0.85936 1.0461 
35 1 1 5.61481 1.77422 0.7206 
4 1 1 8.0094 0.895265 0.791018 
19 1 1 7.22511 8.02077 0.739847 
18 1 1 7.34826 0.864295 0.00876924 
39 1 1 7.1053 1.61315 0.805662 
1 1 1 0.0739372 0.168753 7.91713 
43 1 1 0.752021 3.13435 0.64069 
24 1 1 7.92852 2.25959 0.768213 
145 1 1 1.87268 3.30444 1.60739 
22 1 1 0.775007 2.36052 7.92357 
28 1 1 1.65225 2.42298 0.737056 
47 1 1 2.49734 3.16357 0.843371 
26 1 1 2.47497 2.41043 8.08783 
32 1 1 3.1017 2.31668 0.821433 
30 1 1 4.10891 2.24008 0.142209 
36 1 1 4.65791 2.3629 1.02875 
53 1 1 4.68716 3.12291 0.299003 
57 1 1 6.50014 3.21416 7.97248 
134 1 1 5.48813 2.49806 1.49274 
34 1 1 5.67219 2.50146 7.98884 
40 1 1 6.49187 2.39336 0.636762 
157 1 1 6.38255 3.1591 1.52011 
37 1 1 6.43055 1.50421 7.99678 
138 1 1 7.11222 2.44649 1.62196 
59 1 1 7.2991 3.3351 0.696051 
38 1 1 7.19814 2.48553 8.04904 
21 1 1 8.03102 1.6464 7.94794 
142 1 1 0.847815 3.87545 1.52771 
42 1 1 0.865546 4.01606 7.94603 
48 1 1 1.71295 3.97013 0.769115 
44 1 1 8.0647 3.99363 0.926429 
45 1 1 1.77012 3.20762 0.0144688 
146 1 1 2.39288 4.25969 1.70684 
46 1 1 2.59555 3.87357 0.0382684 
52 1 1 3.11481 4.00574 0.905353 
67 1 1 2.35803 4.73123 0.727844 
69 1 1 3.38749 4.69941 0.125908 
49 1 1 3.31407 3.02294 0.0416636 
51 1 1 3.89575 3.34103 0.87402 
50 1 1 4.21079 4.01488 0.150553 
169 1 1 3.42924 5.09809 1.66708 
56 1 1 4.90829 4.06604 0.834083 
55 1 1 5.64429 3.19913 0.768436 
54 1 1 5.71901 4.13976 0.114463 
75 1 1 5.69706 4.76606 0.929173 
154 1 1 5.70641 3.94581 1.59099 
73 1 1 5.04739 4.84803 8.0685 
60 1 1 6.49325 3.96651 0.961573 
161 1 1 7.51098 4.86783 0.798215 
177 1 1 6.60474 4.93926 1.68658 
158 1 1 7.26267 4.13372 1.57125 
63 1 1 0.829044 4.65261 0.791727 
68 1 1 1.36881 5.5051 0.787111 
162 1 1 0.85557 5.72228 1.64342 
165 1 1 1.54643 4.76816 1.56511 
65 1 1 1.6783 4.61807 0.0522088 
66 1 1 2.32124 5.53251 8.07218 
173 1 1 4.95164 5.04164 1.71412 
71 1 1 4.18276 4.89099 0.863404 
72 1 1 3.29158 5.51067 0.797155 
70 1 1 4.00964 5.44278 7.94859 
91 1 1 4.02868 6.58696 0.692917 
76 1 1 4.92149 5.67901 0.807211 
74 1 1 5.73656 5.57119 7.98227 
80 1 1 6.50438 5.26345 0.665377 
97 1 1 6.50439 6.32032 0.161202 
64 1 1 0.102367 5.67721 0.770958 
163 1 1 0.168277 4.89849 1.50413 
99 1 1 7.28741 6.55326 0.833739 
79 1 1 7.31746 5.56731 0.0174005 
178 1 1 7.3028 5.75747 1.50423 
83 1 1 0.844752 6.55615 0.883854 
82 1 1 0.898438 7.37694 0.159706 
88 1 1 1.6202 7.39795 0.833089 
182 1 1 0.83458 7.31834 1.82486 
105 1 1 1.6344 8.07001 1.64629 
185 1 1 1.59293 6.43734 1.5844 
87 1 1 2.44932 6.30773 0.975994 
186 1 1 2.40917 7.26942 1.53263 
92 1 1 3.22055 7.29844 0.745184 
11 1 1 4.03053 8.01519 0.837834 
189 1 1 3.28523 6.38106 1.64431 
96 1 1 4.89698 7.25762 0.855963 
90 1 1 4.10797 7.26149 7.93631 
15 1 1 5.53797 0.0340967 0.885867 
95 1 1 5.68504 6.44084 0.698501 
194 1 1 5.56925 7.20924 1.55499 
100 1 1 6.40001 7.2908 0.688026 
13 1 1 4.88661 0.0276478 7.99549 
84 1 1 7.98756 7.34852 0.886549 
198 1 1 7.2469 7.16116 1.59948 
181 1 1 0.104868 6.51787 1.54309 
108 1 1 1.56206 0.719082 2.39377 
202 1 1 0.83938 0.83204 3.16969 
104 1 1 7.94553 0.943823 2.48048 
123 1 1 0.961756 1.55803 2.27838 
225 1 1 1.68109 1.68074 3.22945 
221 1 1 8.06533 1.63266 3.19183 
106 1 1 2.36289 0.857394 1.63446 
112 1 1 3.16554 0.727244 2.41148 
206 1 1 2.34211 0.756777 3.07698 
127 1 1 2.21242 1.62519 2.28601 
110 1 1 3.87615 0.788288 1.71152 
133 1 1 5.01003 1.60513 1.88088 
210 1 1 4.10469 0.850799 3.22192 
116 1 1 4.75553 0.506751 2.4415 
131 1 1 4.08153 1.66526 2.35346 
114 1 1 5.70463 0.747899 1.91376 
117 1 1 6.43143 8.00376 1.63172 
137 1 1 6.31251 1.78939 1.53903 
120 1 1 6.48497 1.11842 2.47902 
118 1 1 7.33445 0.887799 1.63156 
218 1 1 7.25819 0.759197 3.14287 
101 1 1 7.99683 0.0303384 1.59314 
122 1 1 0.922951 2.51657 1.55012 
124 1 1 0.300318 2.39966 2.40774 
222 1 1 0.854929 2.45535 3.33915 
128 1 1 1.70378 2.49074 2.40005 
126 1 1 2.4482 2.35985 1.53776 
132 1 1 3.14793 2.3397 2.40609 
129 1 1 3.10368 1.63891 1.69661 
130 1 1 3.72514 2.54994 1.52851 
136 1 1 4.70667 2.45929 2.52552 
151 1 1 3.93786 3.32986 2.58959 
230 1 1 4.04692 2.55561 3.29248 
135 1 1 5.688 1.74309 2.74746 
234 1 1 5.76812 2.61967 3.32716 
140 1 1 6.4094 2.43388 2.37521 
139 1 1 7.24792 1.86226 2.61526 
159 1 1 7.22235 3.2195 2.32528 
237 1 1 6.4002 1.6 3.39458 
257 1 1 6.70256 3.28792 3.16864 
238 1 1 7.25069 2.44075 3.50296 
143 1 1 0.936067 3.27997 2.49859 
141 1 1 8.02059 3.03184 1.51984 
148 1 1 1.56834 4.16089 2.4368 
261 1 1 8.03598 4.80221 3.31052 
147 1 1 2.48116 3.46173 2.4916 
152 1 1 3.15393 4.34304 2.35216 
167 1 1 2.32845 5.02744 2.55046 
149 1 1 3.15129 3.38059 1.74214 
150 1 1 4.12507 4.13345 1.71714 
171 1 1 4.13692 4.9442 2.46271 
250 1 1 4.14488 4.05968 3.41465 
153 1 1 4.807 3.27344 1.59829 
155 1 1 5.59314 3.21982 2.32571 
156 1 1 4.80578 4.0441 2.42332 
254 1 1 5.68574 3.96092 3.25663 
175 1 1 5.73766 4.76003 2.29888 
253 1 1 4.84555 3.27598 3.21749 
144 1 1 0.114524 4.10395 2.38833 
160 1 1 6.3716 3.83482 2.38712 
258 1 1 7.39389 4.07432 3.06156 
242 1 1 0.939251 4.98666 2.45886 
183 1 1 0.682403 6.44672 2.5381 
262 1 1 0.56954 5.66883 3.30313 
281 1 1 7.92374 6.56392 3.31105 
168 1 1 1.55866 5.78983 2.46944 
166 1 1 2.26939 5.52626 1.68594 
187 1 1 2.52885 6.36386 2.34642 
285 1 1 1.43194 6.4972 3.44927 
172 1 1 3.24548 5.65148 2.51059 
170 1 1 4.16997 5.68495 1.77351 
191 1 1 4.16629 6.30142 2.59226 
197 1 1 6.44438 6.3757 1.59311 
176 1 1 4.98075 5.67401 2.49975 
174 1 1 5.71592 5.6722 1.589 
193 1 1 4.90937 6.36873 1.62373 
293 1 1 4.89971 6.56255 3.42264 
273 1 1 4.97618 4.81168 3.07576 
277 1 1 6.47123 4.85041 3.09894 
179 1 1 7.30449 4.87425 2.44499 
164 1 1 8.00015 5.57082 2.40818 
180 1 1 6.53221 5.73999 2.43264 
278 1 1 7.33618 5.64624 3.40352 
103 1 1 0.692622 0.165515 2.37961 
184 1 1 8.03524 7.31187 2.36539 
188 1 1 1.61804 6.97765 2.48059 
107 1 1 2.5541 7.8806 2.52772 
192 1 1 3.28214 7.08492 2.33683 
190 1 1 4.12202 7.21524 1.71064 
109 1 1 3.20998 7.91197 1.60656 
111 1 1 3.99959 7.90172 2.5091 
209 1 1 3.12423 7.74001 3.39838 
290 1 1 4.06253 7.0992 3.31872 
115 1 1 5.56115 7.92557 2.4155 
195 1 1 5.68853 6.48156 2.31517 
196 1 1 4.91703 7.08186 2.44762 
200 1 1 6.46647 7.13749 2.36962 
294 1 1 5.81644 7.33335 3.2931 
119 1 1 7.26931 7.94879 2.40948 
199 1 1 7.27402 6.43955 2.31518 
302 1 1 0.90791 0.789644 4.78413 
223 1 1 0.792366 1.50023 4.00924 
208 1 1 1.66062 0.701721 3.85664 
306 1 1 2.21609 0.728994 4.83109 
229 1 1 3.07962 1.67138 3.13036 
212 1 1 3.25959 0.732085 3.64964 
325 1 1 1.63695 1.53568 4.64402 
231 1 1 4.06347 1.49272 4.06085 
216 1 1 4.84242 0.74438 4.08701 
329 1 1 3.23956 1.56633 4.73414 
310 1 1 3.96951 0.729257 4.77918 
313 1 1 4.74475 8.00589 4.82298 
214 1 1 5.46683 0.867995 3.21129 
217 1 1 6.42482 0.118299 2.90411 
220 1 1 6.29605 0.729783 3.94008 
235 1 1 5.47811 1.58259 4.03799 
314 1 1 5.4954 0.59439 4.89262 
204 1 1 8.0555 0.789721 3.97108 
219 1 1 7.24482 0.127386 3.95152 
228 1 1 1.59084 2.42248 4.03079 
322 1 1 0.868262 2.27395 4.73596 
224 1 1 8.02135 2.24158 4.08718 
321 1 1 8.04071 1.43336 4.8986 
341 1 1 8.03584 3.11823 4.82118 
243 1 1 0.568112 3.18115 4.02074 
227 1 1 2.44478 1.48224 3.98247 
226 1 1 2.32959 2.55808 3.29839 
326 1 1 2.30597 2.37285 4.90557 
232 1 1 3.1636 2.43458 4.11176 
233 1 1 4.7072 1.69801 3.31799 
333 1 1 4.81855 1.68453 4.88079 
249 1 1 3.13362 3.10233 3.23673 
330 1 1 4.17993 2.59621 4.85009 
236 1 1 4.80167 2.3869 4.12225 
255 1 1 5.81466 3.3326 4.1039 
239 1 1 7.31116 1.52091 3.97938 
240 1 1 6.4584 2.5582 4.09675 
265 1 1 1.59573 4.97672 3.39524 
244 1 1 0.847238 4.20501 3.18352 
248 1 1 1.45754 4.00145 4.09843 
246 1 1 2.47865 4.07325 3.32042 
247 1 1 2.34347 3.30254 4.11661 
245 1 1 1.58722 3.34077 3.19179 
252 1 1 3.2357 3.97626 4.10613 
251 1 1 4.01159 3.25671 4.08646 
256 1 1 4.92875 4.16243 4.02542 
260 1 1 6.85164 4.16412 3.99065 
275 1 1 5.92798 4.73251 4.06487 
354 1 1 5.7508 3.92019 4.90891 
241 1 1 -0.0353113 3.36173 3.12735 
259 1 1 7.42065 3.29264 3.95229 
358 1 1 0.115843 4.06461 4.07392 
279 1 1 7.39569 5.02354 4.25913 
377 1 1 6.5707 4.69058 4.83015 
263 1 1 0.836857 4.94832 4.00837 
268 1 1 1.54372 5.73359 4.19842 
283 1 1 0.797619 6.6277 4.31296 
266 1 1 2.36447 5.70585 3.46087 
269 1 1 3.20222 4.90445 3.26914 
267 1 1 2.61758 4.83907 4.12594 
271 1 1 3.99871 5.01416 4.13321 
272 1 1 3.23512 5.92984 4.31457 
270 1 1 4.15121 5.52001 3.27152 
291 1 1 4.17571 6.35076 4.0419 
370 1 1 3.97783 5.57956 4.98135 
393 1 1 4.84341 6.11688 4.87065 
274 1 1 5.7942 5.8191 3.08715 
276 1 1 4.95112 5.36885 4.0547 
295 1 1 5.64611 6.33766 4.28574 
374 1 1 5.65963 5.43117 4.80431 
280 1 1 6.43422 5.60852 4.06946 
264 1 1 0.143362 5.74081 4.23377 
299 1 1 7.33845 6.39 4.24055 
378 1 1 7.15717 5.55659 5.03657 
282 1 1 0.7194 7.2337 3.38997 
205 1 1 1.62576 7.9739 3.17997 
203 1 1 0.761273 0.13309 3.91758 
288 1 1 1.48646 7.34607 4.18213 
305 1 1 1.48034 0.00130676 4.77953 
286 1 1 2.30919 7.08077 3.16288 
289 1 1 3.16795 6.52477 3.2521 
207 1 1 2.40298 7.98868 4.04242 
287 1 1 2.37687 6.63344 4.16588 
211 1 1 3.87506 8.06078 4.06271 
292 1 1 3.33867 7.13988 4.28503 
296 1 1 5.05694 7.14955 4.24802 
390 1 1 4.15245 7.10907 4.92202 
297 1 1 6.68348 6.44922 3.26169 
213 1 1 4.71274 7.97004 3.26992 
215 1 1 5.55666 0.0285771 4.05442 
397 1 1 6.49052 6.4619 4.82935 
298 1 1 7.08614 7.38222 3.24464 
284 1 1 0.0219387 7.28201 4.07232 
201 1 1 7.96104 8.04045 3.15329 
300 1 1 6.37106 7.05857 4.04991 
308 1 1 1.46127 0.77577 5.6752 
402 1 1 0.932404 0.925035 6.46033 
323 1 1 0.768706 1.60412 5.53671 
309 1 1 3.22338 0.0682574 4.78836 
406 1 1 2.37539 0.69883 6.49229 
312 1 1 3.24609 0.953001 5.59289 
327 1 1 2.19596 1.55283 5.51585 
307 1 1 2.41655 0.0992751 5.59077 
316 1 1 4.89609 0.937825 5.65857 
410 1 1 4.08024 0.9376 6.40332 
409 1 1 3.27819 0.281933 6.42327 
317 1 1 6.45626 8.0377 4.82024 
320 1 1 6.31432 0.81816 5.56844 
315 1 1 5.54867 0.0191194 5.83092 
417 1 1 6.39782 -0.0166161 6.40711 
401 1 1 0.0593474 0.116008 6.54872 
304 1 1 0.107918 0.924366 5.86587 
318 1 1 7.14018 0.843301 4.78978 
319 1 1 7.3305 0.298425 5.69241 
339 1 1 7.07477 1.62183 5.6749 
418 1 1 7.10562 1.02584 6.53332 
343 1 1 0.657413 2.98321 5.62326 
345 1 1 1.4911 3.23925 4.92477 
324 1 1 7.94751 2.22454 5.54305 
328 1 1 1.65213 2.47276 5.81647 
426 1 1 2.4178 2.60803 6.3976 
429 1 1 2.94622 1.58036 6.31483 
332 1 1 3.10515 2.51013 5.6099 
331 1 1 4.02618 1.66236 5.42489 
336 1 1 4.92439 2.38091 5.6403 
430 1 1 4.22147 2.30359 6.40794 
337 1 1 6.41066 1.62027 4.60007 
334 1 1 5.69863 2.56826 4.78942 
335 1 1 5.85639 1.82585 5.46334 
355 1 1 5.54762 3.19263 5.68057 
357 1 1 6.64789 3.27856 4.71518 
437 1 1 6.32556 1.67716 6.54948 
340 1 1 6.52373 2.67057 5.43275 
338 1 1 7.27752 2.30701 4.7758 
438 1 1 7.14319 2.39015 6.42841 
342 1 1 0.737001 4.10487 4.8479 
361 1 1 0.0764833 5.01172 4.96045 
442 1 1 0.840919 4.15204 6.67162 
349 1 1 3.26739 3.22749 4.83047 
346 1 1 2.25012 4.0708 4.7976 
347 1 1 2.28552 3.15575 5.49512 
348 1 1 1.53266 4.12006 5.7589 
446 1 1 2.60891 3.89628 6.51169 
351 1 1 4.01217 3.14589 5.71315 
352 1 1 3.09615 4.0419 5.6164 
350 1 1 4.02798 4.01841 4.96682 
353 1 1 4.95682 3.30773 4.72562 
356 1 1 4.75623 3.9175 5.76492 
360 1 1 6.45946 3.94278 5.76697 
379 1 1 7.45216 4.13769 4.9192 
359 1 1 7.44446 3.19044 5.67795 
344 1 1 0.16525 4.13376 5.67908 
478 1 1 7.14084 4.77261 5.76401 
362 1 1 0.96892 5.75262 5.00154 
363 1 1 0.788088 4.9745 5.67146 
462 1 1 0.704717 5.67617 6.55626 
366 1 1 2.41013 5.53645 4.98565 
369 1 1 3.18241 4.7926 4.94595 
367 1 1 2.37457 4.77572 5.76839 
368 1 1 1.59704 5.6584 5.83687 
365 1 1 1.57397 4.92727 5.02964 
387 1 1 2.47811 6.34785 6.00557 
465 1 1 1.57699 4.96863 6.67048 
372 1 1 3.24586 5.68984 5.74228 
371 1 1 4.14885 4.8405 5.72723 
391 1 1 4.06925 6.50099 5.7242 
389 1 1 3.23903 6.51368 5.14732 
373 1 1 4.93045 4.66678 4.93968 
376 1 1 5.04002 5.46305 5.73914 
375 1 1 5.62069 4.65841 5.61523 
380 1 1 6.31582 5.60054 5.58259 
473 1 1 4.84568 4.71274 6.47229 
474 1 1 5.70247 5.68973 6.52834 
381 1 1 -0.0098617 6.54354 4.95361 
364 1 1 7.98862 5.68679 5.78915 
399 1 1 7.16107 6.53568 5.58359 
382 1 1 0.657563 7.34925 4.95033 
383 1 1 0.613332 6.56462 5.68711 
303 1 1 0.690604 8.09883 5.76589 
385 1 1 1.70516 6.39628 5.01082 
388 1 1 1.39838 7.13859 5.5761 
386 1 1 2.25074 7.19255 4.9906 
311 1 1 3.85808 0.102753 5.69087 
392 1 1 3.30017 7.3208 5.78971 
396 1 1 4.75485 7.41401 5.7348 
413 1 1 4.78186 0.0910998 6.47859 
395 1 1 5.58236 6.35567 5.7471 
394 1 1 5.65742 7.35863 5.07555 
400 1 1 6.42403 7.38947 5.62781 
301 1 1 8.03328 0.151459 4.78155 
398 1 1 7.3203 7.42318 4.7138 
384 1 1 7.84735 7.43371 5.63737 
497 1 1 6.5217 6.41084 6.42556 
498 1 1 7.24124 7.27791 6.45113 
403 1 1 0.849047 0.119638 7.19335 
423 1 1 0.776812 1.59488 7.26222 
408 1 1 1.70914 0.876426 7.19038 
6 1 1 2.39836 0.918922 8.00741 
407 1 1 2.37971 7.96885 7.29859 
412 1 1 3.08975 0.932477 7.17394 
14 1 1 5.632 0.819247 0.187861 
416 1 1 5.08802 0.836148 7.33672 
414 1 1 5.67371 0.84746 6.40405 
17 1 1 6.51391 0.141617 7.98063 
421 1 1 8.06416 1.77648 6.51845 
420 1 1 6.34342 0.777524 7.20237 
404 1 1 7.94855 0.889111 7.11428 
419 1 1 7.13559 0.0461506 7.0978 
425 1 1 1.74106 1.66891 6.49276 
422 1 1 0.842037 2.40608 6.61751 
443 1 1 0.835752 3.27707 7.2089 
41 1 1 8.05826 3.1673 8.03706 
424 1 1 7.99356 2.44248 7.23471 
445 1 1 1.67358 3.31221 6.47144 
428 1 1 1.62541 2.54285 7.42339 
427 1 1 2.49298 1.77482 7.23676 
432 1 1 3.46653 2.30297 7.28216 
33 1 1 4.84288 1.56841 8.07236 
431 1 1 4.14762 1.58721 7.28522 
436 1 1 4.91484 2.41436 7.25276 
434 1 1 5.5888 2.4791 6.4765 
433 1 1 4.94791 1.55449 6.48956 
435 1 1 5.65991 1.62392 7.26009 
440 1 1 6.43507 2.47026 7.25752 
439 1 1 7.2244 1.72502 7.29192 
459 1 1 7.25045 3.1172 7.17131 
61 1 1 7.97455 4.57039 8.04226 
441 1 1 0.0231176 3.09587 6.52343 
448 1 1 1.72473 3.89585 7.30162 
444 1 1 7.96018 3.97186 7.20694 
447 1 1 2.60937 3.1001 7.31739 
450 1 1 3.89139 3.97359 6.32192 
453 1 1 4.79906 3.18909 6.48121 
449 1 1 3.42284 3.05176 6.5546 
451 1 1 4.1776 3.14885 7.42897 
452 1 1 3.27513 3.926 7.32292 
456 1 1 4.89379 4.01014 7.23348 
77 1 1 6.42451 4.84088 7.8055 
455 1 1 5.68031 3.25019 7.18962 
454 1 1 5.56243 3.88392 6.48479 
460 1 1 6.59547 4.03742 7.03706 
58 1 1 7.09025 4.06976 8.0907 
457 1 1 6.44941 3.15275 6.44973 
458 1 1 7.36142 3.93132 6.27195 
461 1 1 0.117791 4.83739 6.6596 
477 1 1 6.31101 4.8696 6.45236 
479 1 1 7.32876 4.83183 7.2518 
62 1 1 0.735101 5.72416 0.039848 
463 1 1 0.850738 4.96547 7.42986 
468 1 1 1.47209 5.93825 7.44008 
467 1 1 2.50584 4.67411 7.39286 
466 1 1 2.42014 5.47655 6.66001 
472 1 1 3.33297 5.63813 7.18326 
487 1 1 2.46731 6.36277 7.2895 
489 1 1 3.22565 6.52669 6.62935 
469 1 1 3.24835 4.78329 6.44047 
470 1 1 4.15608 5.70282 6.31056 
493 1 1 4.90202 6.44452 6.50608 
471 1 1 3.99656 4.66062 7.16195 
491 1 1 4.16446 6.25498 7.24921 
475 1 1 5.63467 4.7267 7.18858 
476 1 1 4.81242 5.49051 7.25551 
481 1 1 7.92462 6.45623 6.47032 
464 1 1 8.03347 5.70731 7.38223 
480 1 1 6.52275 5.66542 7.18561 
499 1 1 7.31871 5.5135 6.58792 
78 1 1 7.20058 6.41492 7.2838 
85 1 1 1.68541 6.48458 0.242341 
405 1 1 1.59105 7.9483 6.33888 
482 1 1 0.714705 7.36187 6.54831 
483 1 1 0.740135 6.68463 7.4409 
488 1 1 1.66877 6.97439 7.29295 
485 1 1 1.4944 6.48492 6.40014 
9 1 1 3.25358 0.21069 7.95247 
86 1 1 2.44553 7.32683 0.137959 
486 1 1 2.60184 7.22369 6.53305 
492 1 1 3.18219 7.24525 7.47069 
89 1 1 3.25724 6.42439 0.00879481 
93 1 1 4.83804 6.42289 8.07457 
411 1 1 4.0436 -0.00104238 7.30401 
490 1 1 4.14924 7.23697 6.48195 
496 1 1 4.90784 7.25128 7.14417 
94 1 1 5.68309 7.22301 7.99048 
415 1 1 5.59667 8.07761 7.16536 
495 1 1 5.70249 6.4662 7.32265 
494 1 1 5.74105 7.28543 6.51947 
98 1 1 7.21033 7.13956 0.0187589 
81 1 1 8.0581 6.46134 0.0430857 
484 1 1 7.98595 7.35714 7.32929 
500 1 1 6.41368 7.32847 7.36504 
