ITEM: TIMESTEP
18000
ITEM: NUMBER OF ATOMS
500
ITEM: BOX BOUNDS pp pp pp
0 8.07388
0 8.07388
0 8.07388
ITEM: ATOMS id type mass x y z 
8 1 1 1.7855 0.859177 0.699995 
102 1 1 0.690813 0.716621 1.17794 
4 1 1 7.92438 0.807456 0.680762 
25 1 1 1.70381 1.66558 0.100443 
12 1 1 3.28414 0.866471 0.64076 
29 1 1 3.38443 1.60906 8.00052 
106 1 1 2.48965 0.883438 1.522 
6 1 1 2.52843 0.859395 7.93547 
9 1 1 3.28632 8.06339 0.121463 
11 1 1 4.2483 0.112232 0.710226 
10 1 1 4.24307 0.911811 0.165911 
16 1 1 4.96619 0.820997 0.918933 
15 1 1 5.60569 0.0907931 0.805345 
35 1 1 5.5651 1.76284 0.793183 
20 1 1 6.41999 0.843597 0.789014 
39 1 1 7.13815 1.51382 0.79591 
1 1 1 7.91831 7.96724 0.224159 
19 1 1 7.02352 7.96075 0.749616 
118 1 1 7.20972 0.735641 1.47254 
23 1 1 0.70982 1.68391 0.722054 
122 1 1 0.706196 2.41133 1.61814 
27 1 1 2.56998 1.62632 0.714567 
28 1 1 1.74316 2.44772 0.746719 
47 1 1 2.36664 3.34722 0.920433 
145 1 1 1.69005 3.24801 1.69068 
125 1 1 1.68474 1.61046 1.42388 
126 1 1 2.48001 2.40046 1.38355 
26 1 1 2.55562 2.38974 0.109092 
32 1 1 3.37842 2.3151 0.934385 
31 1 1 4.12454 1.71839 0.763467 
30 1 1 4.05 2.53947 0.0309035 
36 1 1 4.85869 2.67194 0.880109 
34 1 1 5.58021 2.48453 0.142988 
55 1 1 5.59684 3.38635 0.92008 
157 1 1 6.35304 3.27145 1.53437 
121 1 1 7.96612 1.40023 1.58946 
24 1 1 0.0180076 2.49482 0.72222 
40 1 1 6.56565 2.33146 0.888057 
138 1 1 7.42785 2.21861 1.4492 
137 1 1 6.43488 1.70663 1.65858 
141 1 1 8.01329 3.42317 1.52876 
43 1 1 0.833707 3.22072 0.895258 
44 1 1 0.0770782 4.09397 0.602096 
63 1 1 0.905628 4.83961 0.944634 
48 1 1 1.55589 3.99886 0.765181 
67 1 1 2.43777 4.80165 0.844429 
52 1 1 3.15252 3.96997 0.82637 
169 1 1 3.11172 4.8235 1.56276 
146 1 1 2.48699 3.88791 1.79824 
149 1 1 3.36482 3.16622 1.67066 
51 1 1 3.93099 3.20418 0.763552 
56 1 1 4.66777 4.10168 0.718018 
71 1 1 3.91454 4.8285 0.848237 
50 1 1 3.85903 4.16831 8.05223 
75 1 1 5.58907 4.86218 0.902881 
60 1 1 6.36569 4.14582 0.742493 
54 1 1 5.58428 4.0754 0.0681872 
59 1 1 7.19316 3.25801 0.923087 
58 1 1 7.2138 4.01013 7.94738 
161 1 1 7.30409 4.78367 0.685403 
77 1 1 6.45453 4.79155 8.01794 
162 1 1 0.883338 5.65005 1.58146 
68 1 1 1.71913 5.57421 0.808724 
163 1 1 0.133446 4.77025 1.6628 
62 1 1 0.880567 5.64951 0.0388965 
66 1 1 2.54347 5.66645 0.0609397 
87 1 1 2.31682 6.44192 0.9504 
166 1 1 2.35444 5.66092 1.66575 
72 1 1 3.18555 5.72939 0.822214 
70 1 1 3.96866 5.65479 0.0572526 
76 1 1 4.6864 5.72914 0.82592 
73 1 1 4.70994 4.91149 0.0920446 
74 1 1 5.56155 5.80569 0.0265011 
61 1 1 8.04818 4.97916 7.94187 
64 1 1 0.0271988 5.61153 0.919728 
80 1 1 6.3624 5.58059 0.694547 
97 1 1 6.36076 6.51799 0.195319 
79 1 1 7.19445 5.81795 0.084859 
99 1 1 7.49436 6.65674 0.725041 
83 1 1 1.01627 6.40345 0.851269 
3 1 1 0.812952 7.96227 0.75336 
88 1 1 1.59099 7.33553 0.757681 
7 1 1 2.43061 8.00966 0.801501 
92 1 1 3.19799 7.27117 0.847923 
86 1 1 2.37495 7.08623 8.00141 
109 1 1 3.36019 0.24645 1.41426 
186 1 1 2.30976 7.37013 1.72248 
91 1 1 4.1106 6.60695 0.846405 
90 1 1 3.99797 7.30414 0.0172143 
96 1 1 4.88261 7.32185 0.795794 
13 1 1 4.83824 8.03975 7.97543 
95 1 1 5.46044 6.35962 0.972675 
100 1 1 6.15919 7.37018 0.942391 
94 1 1 5.64524 7.19364 7.94505 
93 1 1 4.73903 6.38918 8.06906 
181 1 1 8.05003 6.2433 1.70826 
84 1 1 0.235268 7.10423 0.894677 
98 1 1 7.19438 7.2195 8.02657 
105 1 1 1.52938 0.214064 1.56872 
101 1 1 0.0818266 0.0426794 1.60087 
103 1 1 0.792248 0.165893 2.32553 
225 1 1 1.60185 1.39408 3.45918 
205 1 1 1.34033 0.325918 3.32588 
108 1 1 1.65728 1.07781 2.5116 
129 1 1 3.38114 1.51755 1.55703 
107 1 1 2.27045 0.123309 2.33188 
113 1 1 4.94811 0.0534171 1.78733 
209 1 1 3.30786 8.01867 3.04518 
110 1 1 4.21001 0.754824 1.72614 
112 1 1 3.29737 0.852454 2.37997 
111 1 1 4.2067 8.04145 2.54729 
210 1 1 4.1735 0.704704 3.32999 
116 1 1 4.97518 0.9061 2.37846 
114 1 1 5.72744 0.908531 1.63434 
133 1 1 4.87307 1.68302 1.5423 
135 1 1 5.69724 1.71045 2.50257 
104 1 1 7.90452 0.696691 2.39942 
120 1 1 6.56102 0.850443 2.38145 
139 1 1 7.39159 1.65101 2.38808 
218 1 1 7.32942 0.753559 3.20269 
119 1 1 7.30085 7.92034 2.27471 
123 1 1 0.828607 1.4437 2.07591 
143 1 1 0.8869 3.18891 2.31426 
128 1 1 1.59398 2.30669 2.28356 
127 1 1 2.49857 1.63771 2.26672 
132 1 1 3.21194 2.41895 2.35819 
226 1 1 2.43048 2.30751 3.2503 
130 1 1 4.11951 2.39528 1.64874 
131 1 1 4.11004 1.55258 2.41562 
151 1 1 4.08277 3.22082 2.47398 
134 1 1 5.7413 2.42875 1.76603 
136 1 1 4.86982 2.45647 2.44149 
155 1 1 5.67297 3.25077 2.37186 
153 1 1 4.77537 3.43128 1.54341 
124 1 1 0.16137 2.28193 2.41065 
140 1 1 6.51829 2.47203 2.43219 
142 1 1 0.989696 4.02991 1.61269 
245 1 1 1.62268 2.99056 3.14581 
147 1 1 2.44177 3.00618 2.38513 
148 1 1 1.79813 3.96612 2.55284 
150 1 1 4.0265 4.1266 1.62508 
249 1 1 3.30502 3.26044 3.39766 
152 1 1 3.2947 4.06766 2.44175 
250 1 1 4.06499 4.10226 3.20575 
173 1 1 4.86618 4.98049 1.61143 
154 1 1 5.54726 4.164 1.72068 
156 1 1 4.82364 4.27318 2.45934 
175 1 1 5.78264 4.82867 2.56995 
144 1 1 0.119844 3.9718 2.44468 
158 1 1 7.29584 4.06289 1.74623 
159 1 1 7.46748 3.14178 2.5059 
160 1 1 6.44924 3.92338 2.4199 
177 1 1 6.37191 4.9238 1.59261 
179 1 1 7.27013 4.80072 2.53522 
242 1 1 1.01105 4.69037 2.3342 
164 1 1 0.220418 5.52315 2.44773 
285 1 1 1.70056 6.3173 3.15241 
281 1 1 8.04374 6.52478 3.32947 
165 1 1 1.91445 4.74733 1.67372 
168 1 1 1.5932 5.62554 2.36605 
167 1 1 2.45181 4.91981 2.46495 
172 1 1 3.3046 5.8811 2.50052 
171 1 1 3.9028 4.98023 2.41963 
170 1 1 4.03164 5.61165 1.59057 
191 1 1 4.06458 6.52537 2.41488 
273 1 1 4.81517 4.83801 3.3269 
270 1 1 3.9016 5.64776 3.28439 
293 1 1 4.79378 6.39291 3.24837 
176 1 1 4.7751 5.5477 2.57754 
174 1 1 5.56696 5.63173 1.86777 
180 1 1 6.56733 5.62071 2.57526 
195 1 1 5.65852 6.39801 2.5792 
274 1 1 5.69354 5.59269 3.2741 
178 1 1 7.23987 5.51395 1.63094 
183 1 1 0.81905 6.32039 2.62355 
182 1 1 0.919561 7.43056 1.66751 
188 1 1 1.45503 7.39667 2.54557 
184 1 1 0.0412527 7.11875 2.34429 
185 1 1 1.60321 6.65248 1.72317 
282 1 1 0.653161 7.23996 3.21629 
189 1 1 3.31363 6.51047 1.65096 
187 1 1 2.45932 6.53647 2.39461 
192 1 1 3.19969 7.36072 2.28289 
190 1 1 4.10913 7.36341 1.689 
115 1 1 5.64112 7.82103 2.53845 
193 1 1 4.80187 6.41574 1.69593 
196 1 1 4.88363 7.25999 2.71148 
194 1 1 5.5027 7.13864 1.68485 
197 1 1 6.45773 6.20034 1.38284 
201 1 1 8.01579 8.03557 3.25939 
200 1 1 6.4303 7.01533 2.25264 
199 1 1 7.17232 6.39822 2.42127 
117 1 1 6.39977 0.0729044 1.70486 
198 1 1 7.4062 7.14252 1.57156 
202 1 1 0.607943 1.07733 3.2325 
203 1 1 0.651197 0.0857068 4.03029 
204 1 1 7.89712 0.922531 4.18627 
208 1 1 1.54556 0.913933 4.32417 
206 1 1 2.44168 0.705753 3.17268 
207 1 1 2.1484 0.056404 4.08825 
229 1 1 3.18235 1.60767 3.19331 
212 1 1 3.14271 0.598433 3.87125 
310 1 1 4.24531 0.902036 4.77764 
216 1 1 4.97186 0.847304 4.09785 
329 1 1 3.26423 1.3137 4.91411 
214 1 1 5.81756 0.846204 3.33023 
314 1 1 5.77965 0.776852 4.91798 
235 1 1 5.90568 1.61196 4.02901 
215 1 1 5.70285 0.0566362 4.09857 
233 1 1 4.76131 1.53168 3.39756 
237 1 1 6.51054 1.62494 2.92159 
220 1 1 6.57773 0.766631 4.06237 
239 1 1 7.17625 1.64004 4.05529 
221 1 1 7.85674 1.63056 3.32197 
223 1 1 0.716536 1.77512 4.30738 
222 1 1 0.942096 2.08607 3.20373 
228 1 1 1.81423 2.2333 4.00809 
227 1 1 2.59826 1.40022 4.1916 
231 1 1 3.97108 1.41949 3.98281 
232 1 1 3.24198 2.42844 3.98757 
230 1 1 4.06748 2.3496 3.20313 
251 1 1 4.12748 3.01254 4.08928 
236 1 1 5.0131 2.46912 3.98347 
234 1 1 5.80128 2.46935 3.28061 
337 1 1 6.4464 1.54087 4.84161 
334 1 1 5.64177 2.4212 4.79373 
238 1 1 7.22895 2.41651 3.35316 
224 1 1 7.97169 2.41579 4.16988 
240 1 1 6.53075 2.56862 4.13246 
338 1 1 7.25707 2.50306 4.96127 
244 1 1 0.965506 3.97623 3.23265 
243 1 1 0.957178 3.19931 4.14547 
248 1 1 1.70322 4.04559 4.08918 
358 1 1 0.164677 3.93606 4.17881 
342 1 1 0.832459 3.93926 4.95111 
247 1 1 2.38472 3.15133 4.04333 
365 1 1 1.61923 4.94113 4.89662 
246 1 1 2.53672 4.0969 3.16621 
346 1 1 2.5218 3.89799 4.72023 
369 1 1 3.16762 4.79324 4.71344 
252 1 1 3.2729 4.10791 3.91108 
271 1 1 3.96334 4.85165 4.07309 
256 1 1 4.77527 4.02362 4.05588 
254 1 1 5.60278 4.02324 3.19967 
253 1 1 4.88341 3.35994 3.11927 
255 1 1 5.64858 3.28205 3.90009 
354 1 1 5.64522 4.11199 4.71956 
241 1 1 0.126097 3.21326 3.2751 
258 1 1 7.33063 3.87495 3.42813 
257 1 1 6.51394 3.19639 3.19701 
259 1 1 7.34019 3.34376 4.24641 
260 1 1 6.43352 3.93707 4.07911 
277 1 1 6.51397 4.64879 3.23398 
279 1 1 7.50877 4.66037 4.25977 
262 1 1 0.713394 5.48304 3.32744 
263 1 1 0.823555 4.69532 4.07143 
362 1 1 0.728445 5.63921 4.75311 
283 1 1 0.81142 6.44644 4.03534 
265 1 1 1.61523 4.89825 3.41759 
266 1 1 2.49547 5.71315 3.14944 
267 1 1 2.40887 4.92368 4.04125 
269 1 1 3.27289 4.85989 3.21022 
268 1 1 1.54881 5.69596 3.97689 
272 1 1 3.18307 5.73595 3.99047 
373 1 1 4.61405 4.89586 4.87347 
370 1 1 3.95926 5.66596 4.74839 
276 1 1 4.80571 5.64869 3.97334 
291 1 1 3.95246 6.58668 3.87743 
275 1 1 5.80489 4.85183 3.99962 
295 1 1 5.72227 6.33106 4.10513 
261 1 1 0.133336 4.65865 3.21075 
278 1 1 7.19557 5.37507 3.39612 
280 1 1 6.50545 5.57929 4.11033 
264 1 1 7.99577 5.68638 3.89989 
361 1 1 0.135465 4.91731 4.91482 
299 1 1 7.19233 6.3731 3.93856 
377 1 1 6.44972 4.66621 4.85996 
284 1 1 7.86136 7.28208 4.03761 
305 1 1 1.66003 0.0732589 5.10606 
287 1 1 2.46868 6.48059 3.90731 
288 1 1 1.42197 7.3385 3.89012 
286 1 1 2.39733 7.54865 3.13904 
292 1 1 3.11889 7.39658 4.04937 
290 1 1 4.17153 7.39441 3.40297 
211 1 1 4.1094 8.0308 4.21337 
289 1 1 3.15732 6.66551 3.1768 
393 1 1 4.66185 6.41225 4.65756 
213 1 1 5.06792 0.118474 3.23862 
297 1 1 6.48804 6.40925 3.24188 
294 1 1 5.75984 7.26443 3.42449 
296 1 1 4.90148 7.29067 4.1379 
394 1 1 5.9843 7.23834 4.83331 
300 1 1 6.56961 7.18943 4.01193 
298 1 1 7.23777 7.16369 3.08821 
217 1 1 6.52714 7.9364 3.10216 
317 1 1 6.52198 8.05685 4.73696 
219 1 1 7.35979 0.0136408 4.04264 
302 1 1 0.753546 0.827524 4.97551 
323 1 1 0.775651 1.40424 5.8521 
308 1 1 1.58181 0.92733 5.80973 
325 1 1 1.62632 1.56885 5.00018 
306 1 1 2.37061 0.804555 5.07787 
309 1 1 3.08362 0.164485 4.80609 
312 1 1 3.49606 0.837443 5.78497 
331 1 1 4.1582 1.58523 5.59479 
409 1 1 3.15686 0.178026 6.65738 
333 1 1 5.00178 1.62873 4.6583 
316 1 1 5.0298 0.884886 5.63683 
414 1 1 5.66336 0.803631 6.57482 
320 1 1 6.45135 0.826247 5.62366 
335 1 1 5.64011 1.66452 5.59054 
304 1 1 7.99335 0.717391 5.72426 
318 1 1 7.19807 0.877149 4.86504 
339 1 1 7.22669 1.62896 5.71903 
418 1 1 7.14672 0.818591 6.53294 
421 1 1 8.04334 1.61846 6.51474 
322 1 1 0.853024 2.37917 5.16036 
324 1 1 8.06809 2.46706 5.87552 
328 1 1 1.73111 2.39696 5.81807 
445 1 1 1.63624 3.20047 6.52771 
326 1 1 2.52385 2.31704 4.91673 
327 1 1 2.57008 1.65839 5.81655 
347 1 1 2.53861 3.13964 5.76837 
349 1 1 3.28624 3.09604 4.86074 
332 1 1 3.33847 2.36562 5.82683 
330 1 1 3.95823 2.13433 4.70076 
351 1 1 3.87767 3.26627 5.73207 
353 1 1 5.00954 3.28964 4.72438 
336 1 1 4.83346 2.57272 5.56284 
434 1 1 5.58504 2.37258 6.31277 
321 1 1 8.02724 1.58034 4.98424 
340 1 1 6.3734 2.39162 5.70159 
438 1 1 7.04511 2.44927 6.49919 
341 1 1 0.14943 3.20916 4.97728 
345 1 1 1.71805 3.01078 4.93682 
343 1 1 0.756621 3.15011 5.78921 
442 1 1 0.857591 3.94939 6.46157 
348 1 1 1.57868 4.10651 5.66465 
352 1 1 3.08181 3.99388 5.76445 
446 1 1 2.34198 4.09394 6.44574 
449 1 1 3.22147 3.33534 6.57924 
350 1 1 4.0652 4.03573 4.81839 
450 1 1 3.97497 3.99588 6.56837 
357 1 1 6.29272 3.21028 5.01288 
355 1 1 5.57003 3.3168 5.6341 
356 1 1 4.7577 4.09843 5.71405 
454 1 1 5.61538 4.0857 6.46522 
360 1 1 6.37763 4.01 5.80789 
473 1 1 4.81643 4.75109 6.51022 
359 1 1 7.04967 3.18244 5.81728 
344 1 1 0.0596054 4.03733 5.66078 
379 1 1 7.1865 3.95374 5.11079 
457 1 1 6.23662 3.19251 6.43313 
385 1 1 1.51086 6.52457 4.7853 
381 1 1 7.96206 6.40077 4.77453 
363 1 1 0.766035 4.77817 5.63857 
368 1 1 1.4585 5.71777 5.56623 
462 1 1 0.721829 5.48592 6.4133 
465 1 1 1.55628 4.71818 6.61618 
366 1 1 2.36942 5.73337 4.66394 
367 1 1 2.29304 4.86681 5.59835 
387 1 1 2.26213 6.51679 5.67477 
371 1 1 3.8983 4.8056 5.64043 
372 1 1 3.16473 5.64144 5.41931 
391 1 1 4.052 6.41847 5.45028 
375 1 1 5.55938 4.69371 5.63653 
376 1 1 4.76197 5.6407 5.71602 
374 1 1 5.49186 5.76516 5.01054 
395 1 1 5.74066 6.53156 5.61539 
497 1 1 6.57877 6.40645 6.61541 
397 1 1 6.62129 6.38458 4.85888 
364 1 1 0.0864523 5.71958 5.59868 
380 1 1 6.41903 5.73092 5.65415 
378 1 1 7.17735 5.46461 5.0064 
478 1 1 7.37789 4.7213 5.6973 
399 1 1 7.42301 6.49383 5.60655 
383 1 1 0.774748 6.65802 5.48636 
382 1 1 0.829578 7.45926 4.70209 
303 1 1 0.783686 0.081362 5.63034 
389 1 1 3.0977 6.64842 4.89283 
307 1 1 2.59071 8.04719 5.82711 
386 1 1 2.29292 7.34037 4.96469 
388 1 1 1.59674 7.38573 5.77927 
390 1 1 3.98386 7.23153 4.85933 
392 1 1 3.26099 7.3978 5.56833 
311 1 1 4.1166 0.0918767 5.50789 
490 1 1 3.96035 7.45606 6.40981 
313 1 1 4.93006 8.03598 4.82955 
396 1 1 4.83077 7.24092 5.54195 
413 1 1 4.92419 8.03103 6.16083 
315 1 1 5.71715 7.97906 5.59772 
400 1 1 6.58315 7.12379 5.79182 
494 1 1 5.52136 7.23194 6.51715 
301 1 1 0.0624707 0.174266 4.84091 
398 1 1 7.26086 7.20678 4.92074 
319 1 1 7.01284 0.0585651 5.66694 
384 1 1 0.0262711 7.38829 5.51392 
401 1 1 7.94607 8.04146 6.40734 
498 1 1 7.38504 7.23616 6.40875 
425 1 1 1.61294 1.64109 6.7005 
2 1 1 0.732994 0.719224 0.147991 
402 1 1 0.713304 0.782658 6.66543 
408 1 1 1.4523 0.802807 7.43536 
406 1 1 2.29337 0.744986 6.57451 
410 1 1 4.17078 0.638752 6.48013 
429 1 1 3.40293 1.31101 6.68482 
412 1 1 3.44132 0.755019 7.46811 
431 1 1 4.18737 1.7285 7.28897 
416 1 1 4.8067 0.75557 7.38712 
14 1 1 5.57241 0.861866 0.0866033 
420 1 1 6.43049 0.885502 7.21406 
435 1 1 5.55259 1.64962 7.31263 
18 1 1 7.24294 0.798231 8.03815 
404 1 1 8.04739 0.912828 7.36525 
419 1 1 7.27044 0.0677582 7.27607 
22 1 1 0.854874 2.51251 0.147956 
422 1 1 0.907664 2.29568 6.43615 
423 1 1 0.744149 1.62081 7.46838 
428 1 1 1.4836 2.45935 7.29943 
45 1 1 1.68244 3.22632 0.0151583 
426 1 1 2.51442 2.38118 6.60212 
427 1 1 2.52953 1.67786 7.40832 
432 1 1 3.19339 2.39219 7.32186 
453 1 1 4.75336 3.30409 6.41409 
430 1 1 4.20501 2.40704 6.43382 
451 1 1 3.91692 3.28153 7.41034 
53 1 1 4.8022 3.29066 0.137041 
436 1 1 4.8269 2.60561 7.24462 
49 1 1 3.08649 3.2569 0.0185193 
37 1 1 6.37341 1.62696 0.0234202 
33 1 1 4.80867 1.81197 0.0457695 
433 1 1 4.92364 1.48024 6.40667 
38 1 1 7.22319 2.41223 7.94826 
21 1 1 7.97802 1.69875 0.0950986 
424 1 1 7.99352 2.48298 7.16317 
437 1 1 6.32338 1.65019 6.53523 
440 1 1 6.21086 2.52479 7.33219 
439 1 1 7.19081 1.66511 7.3653 
65 1 1 1.64706 4.91861 8.07168 
42 1 1 0.908166 3.86779 8.041 
443 1 1 0.567885 3.21514 7.1586 
448 1 1 1.67002 3.94813 7.26332 
444 1 1 0.190884 4.06266 7.37669 
447 1 1 2.43554 3.11212 7.28806 
46 1 1 2.35201 4.10487 7.97372 
69 1 1 3.13407 4.80961 0.0921966 
469 1 1 3.16176 4.81443 6.35969 
452 1 1 3.16642 4.26649 7.15991 
456 1 1 4.83414 4.01964 7.4162 
471 1 1 4.08885 4.78351 7.3174 
57 1 1 6.39264 3.24971 0.0776353 
455 1 1 5.60227 3.30135 7.39136 
475 1 1 5.51808 4.79519 7.37958 
41 1 1 0.0707631 3.22045 8.06519 
458 1 1 7.06089 4.23563 6.58908 
441 1 1 7.86188 3.35545 6.41464 
460 1 1 6.28575 3.99789 7.28643 
459 1 1 7.16244 3.3304 7.18133 
479 1 1 7.22767 4.83035 7.35073 
461 1 1 0.0214021 4.71632 6.54539 
463 1 1 0.737203 4.89667 7.26889 
85 1 1 1.73293 6.27807 8.06272 
468 1 1 1.50158 5.65168 7.15921 
483 1 1 0.847818 6.46805 7.24699 
466 1 1 2.44029 5.66018 6.36582 
467 1 1 2.43312 5.07238 7.36483 
472 1 1 3.27782 5.54779 7.27122 
470 1 1 3.82524 5.69189 6.36044 
489 1 1 3.15384 6.42199 6.20673 
491 1 1 4.07015 6.45524 7.20776 
477 1 1 6.45836 5.09898 6.58244 
474 1 1 5.67414 5.77956 6.36792 
493 1 1 4.75023 6.28973 6.47465 
476 1 1 4.78632 5.51516 7.22221 
495 1 1 5.50906 6.44502 7.21869 
499 1 1 7.46993 5.90255 6.42327 
480 1 1 6.38503 5.75968 7.458 
464 1 1 0.134387 5.80755 7.13322 
5 1 1 1.81705 7.99269 8.00871 
82 1 1 0.956586 7.14504 8.00454 
405 1 1 1.49233 0.142501 6.52713 
482 1 1 0.789076 7.44176 6.36295 
403 1 1 0.78499 8.03151 7.46825 
488 1 1 1.49524 7.35283 7.06676 
89 1 1 3.20067 6.50069 0.00761358 
486 1 1 2.41401 7.13858 6.48228 
487 1 1 2.46966 6.2658 7.14437 
485 1 1 1.38391 6.49066 6.37541 
407 1 1 2.50168 7.82954 7.31368 
492 1 1 3.23036 7.08528 7.15915 
411 1 1 3.87096 7.96143 7.31443 
17 1 1 6.34304 0.175108 8.06953 
417 1 1 6.33732 0.0555394 6.48488 
415 1 1 5.4912 7.99608 7.27605 
496 1 1 4.6882 7.22277 7.32276 
500 1 1 6.49009 7.32242 7.3263 
81 1 1 0.103126 6.5004 8.07708 
481 1 1 0.260068 6.5629 6.35293 
78 1 1 7.36925 6.46931 7.31437 
484 1 1 0.0550315 7.16181 7.16093 
