ITEM: TIMESTEP
24000
ITEM: NUMBER OF ATOMS
500
ITEM: BOX BOUNDS pp pp pp
0 8.07388
0 8.07388
0 8.07388
ITEM: ATOMS id type mass x y z 
3 1 1 0.556195 7.95967 0.706809 
102 1 1 0.716061 0.912053 1.59317 
8 1 1 1.52453 0.839865 0.815549 
27 1 1 2.43778 1.63553 0.759098 
7 1 1 2.22414 0.123628 0.940376 
12 1 1 3.06978 0.68666 0.688972 
31 1 1 4.26888 1.4789 0.798565 
16 1 1 5.0831 0.899498 0.929958 
20 1 1 6.50101 0.838024 0.791193 
15 1 1 5.71682 0.145723 0.775331 
14 1 1 5.83499 0.798401 8.09046 
33 1 1 4.99809 1.4719 0.0684143 
4 1 1 8.06887 0.708939 0.874719 
39 1 1 7.29022 1.67749 0.925721 
101 1 1 -0.00534393 0.0285004 1.63341 
23 1 1 0.758411 1.56196 0.766093 
43 1 1 0.960194 3.30783 1.0993 
122 1 1 0.691795 2.39245 1.67394 
125 1 1 1.4007 1.66417 1.59719 
28 1 1 1.70257 2.3995 0.839543 
47 1 1 2.70768 3.08967 0.837969 
26 1 1 2.52531 2.37267 0.0701155 
32 1 1 3.38013 2.2379 0.793846 
45 1 1 1.87966 3.29935 0.147385 
126 1 1 2.31643 2.24939 1.58916 
30 1 1 4.05062 2.33604 8.00002 
36 1 1 4.94029 2.32425 0.962347 
53 1 1 4.73096 3.25217 8.03532 
49 1 1 3.25629 3.16815 8.04572 
130 1 1 4.21374 2.46027 1.56925 
35 1 1 5.71233 1.76433 0.892605 
134 1 1 5.70308 2.5885 1.7079 
157 1 1 6.44755 3.25649 1.64337 
55 1 1 5.54977 3.32336 0.839929 
137 1 1 6.48055 1.7193 1.78171 
24 1 1 0.0660599 2.55775 0.884805 
40 1 1 6.48847 2.40566 0.887936 
141 1 1 -0.00186497 3.35944 1.56472 
142 1 1 0.776686 4.29194 1.41377 
44 1 1 0.0461283 3.98532 0.728016 
63 1 1 0.683386 4.87298 0.639922 
165 1 1 1.642 4.86155 1.54314 
145 1 1 1.91918 3.18576 1.5301 
48 1 1 1.75929 4.08533 0.76097 
46 1 1 2.47249 4.0804 8.04441 
52 1 1 3.19634 4.18507 0.848974 
67 1 1 2.34183 4.89898 0.704625 
65 1 1 1.58823 4.86469 7.96851 
69 1 1 3.15554 4.75103 7.99545 
51 1 1 4.04307 3.17388 0.747481 
50 1 1 3.88467 4.09257 8.0315 
153 1 1 4.88851 3.28996 1.63101 
56 1 1 4.79172 3.98156 0.815131 
54 1 1 5.72066 3.986 8.05728 
75 1 1 5.58391 4.74877 0.596265 
154 1 1 5.58199 4.15917 1.52275 
73 1 1 4.76691 4.90571 0.083889 
59 1 1 7.21557 3.49949 1.00586 
60 1 1 6.30858 4.02053 0.78168 
158 1 1 7.27379 4.19531 1.8554 
58 1 1 7.06207 3.91568 0.100374 
68 1 1 1.60221 5.60296 0.832657 
64 1 1 0.094368 5.82331 0.927581 
163 1 1 8.05345 4.93738 1.6661 
185 1 1 1.49093 6.39795 1.55798 
62 1 1 0.785336 5.57767 8.00346 
66 1 1 2.48436 5.62442 8.04261 
87 1 1 2.48155 6.498 0.731611 
71 1 1 4.02031 4.87783 0.844589 
72 1 1 3.34886 5.66871 0.793366 
93 1 1 4.78201 6.4749 7.96411 
76 1 1 4.76201 5.70114 0.749192 
95 1 1 5.60329 6.42591 0.597129 
197 1 1 6.3423 6.371 1.53843 
174 1 1 5.47642 5.60671 1.54544 
161 1 1 7.11629 4.59651 0.90112 
80 1 1 6.36102 5.62556 0.725822 
97 1 1 6.42723 6.52549 0.061662 
178 1 1 7.25901 5.52285 1.46617 
81 1 1 8.01132 6.56255 8.05237 
83 1 1 0.837837 6.48411 0.649648 
82 1 1 0.800988 7.41278 7.90759 
181 1 1 0.00494983 6.47657 1.59257 
88 1 1 1.51298 7.44631 0.62202 
186 1 1 2.6357 7.36256 1.49588 
109 1 1 3.23544 0.190868 1.64911 
85 1 1 1.61698 6.18358 0.00548745 
86 1 1 2.45608 7.35912 0.113134 
113 1 1 4.86331 0.111387 1.72384 
91 1 1 4.11808 6.52538 0.786408 
92 1 1 3.32104 7.58551 0.81259 
11 1 1 4.17621 0.241503 0.629038 
96 1 1 4.78192 7.41154 0.67798 
194 1 1 5.65441 7.28607 1.56833 
100 1 1 6.30365 7.27321 0.781639 
19 1 1 7.24705 8.03709 0.898841 
99 1 1 7.2785 6.43994 0.863231 
84 1 1 7.87755 7.24993 0.909445 
198 1 1 7.07404 7.25832 1.65711 
98 1 1 7.12772 7.31297 -0.0117634 
108 1 1 1.59854 0.811888 2.42945 
202 1 1 0.956657 0.861435 3.35433 
123 1 1 0.750981 1.64131 2.40478 
103 1 1 0.660587 0.0631164 2.40591 
105 1 1 1.50634 0.130631 1.70612 
106 1 1 2.49182 1.01894 1.59456 
112 1 1 3.16955 0.829076 2.47389 
206 1 1 2.42274 0.900779 3.21862 
110 1 1 4.16465 0.815988 1.51189 
210 1 1 4.18639 0.73363 3.23782 
116 1 1 4.94173 0.855391 2.41192 
133 1 1 4.97006 1.67322 1.76365 
114 1 1 5.75729 0.907591 1.76464 
214 1 1 5.64248 0.615156 3.38101 
217 1 1 6.48861 7.97103 3.20375 
104 1 1 0.0529098 0.860979 2.42224 
120 1 1 6.60121 0.792742 2.43593 
118 1 1 7.37838 0.889907 1.74447 
218 1 1 7.28648 0.69031 3.23803 
124 1 1 8.02636 2.33594 2.40223 
225 1 1 1.67689 1.69962 3.14747 
127 1 1 2.45995 1.66781 2.49408 
128 1 1 1.65626 2.43934 2.32968 
132 1 1 3.33812 2.38519 2.50208 
129 1 1 3.46516 1.47686 1.63989 
229 1 1 3.36632 1.51818 3.23695 
131 1 1 4.10929 1.60516 2.4383 
136 1 1 4.8794 2.37748 2.55114 
135 1 1 5.65574 1.55523 2.58737 
140 1 1 6.48517 2.61141 2.43744 
155 1 1 5.55121 3.22185 2.51994 
121 1 1 7.98954 1.54855 1.63354 
138 1 1 7.19476 2.37011 1.70893 
221 1 1 7.92156 1.66972 3.33032 
139 1 1 7.28681 1.65217 2.54113 
159 1 1 7.34035 3.16545 2.36239 
143 1 1 0.949647 3.16036 2.22394 
148 1 1 1.66033 3.98724 2.31758 
144 1 1 0.235275 3.95797 2.39762 
244 1 1 1.15921 3.77876 3.09142 
245 1 1 1.73186 2.91678 3.3393 
146 1 1 2.5202 4.0527 1.75782 
147 1 1 2.50416 3.11262 2.6195 
152 1 1 3.25402 3.98465 2.55804 
149 1 1 3.42323 3.14041 1.72571 
151 1 1 4.11408 3.2181 2.40903 
150 1 1 3.9173 4.19289 1.57117 
156 1 1 4.69256 4.15362 2.47413 
175 1 1 5.61225 4.74301 2.58705 
253 1 1 4.78709 3.15641 3.35962 
160 1 1 6.2688 3.95635 2.38229 
273 1 1 4.68029 4.89524 3.21891 
257 1 1 6.29446 3.39119 3.28685 
258 1 1 7.30043 3.9403 3.10721 
241 1 1 0.0280729 3.1298 3.01376 
162 1 1 0.791363 5.68921 1.63399 
242 1 1 1.00369 4.80673 2.39456 
183 1 1 0.75566 6.50941 2.33573 
168 1 1 1.54778 5.68717 2.60838 
167 1 1 2.3342 4.8142 2.43271 
166 1 1 2.38945 5.76484 1.53512 
187 1 1 2.4896 6.3965 2.39641 
169 1 1 3.06373 4.90768 1.61039 
189 1 1 3.20488 6.52951 1.57447 
171 1 1 3.83751 4.75121 2.49969 
172 1 1 3.21163 5.57649 2.42919 
170 1 1 3.93511 5.55455 1.6506 
191 1 1 4.05441 6.64694 2.33996 
173 1 1 4.71769 4.87244 1.5986 
176 1 1 5.02092 5.6968 2.45128 
193 1 1 4.83594 6.43776 1.44878 
274 1 1 5.50131 5.59463 3.29311 
177 1 1 6.28416 4.94566 1.61718 
277 1 1 6.47372 4.5866 3.1029 
179 1 1 7.31673 4.95512 2.53606 
164 1 1 0.196445 5.64319 2.59332 
180 1 1 6.46518 5.46062 2.5073 
199 1 1 7.21244 6.16833 2.39506 
182 1 1 0.769222 7.34717 1.53756 
188 1 1 1.68082 7.30423 2.32369 
107 1 1 2.36933 0.0844597 2.19664 
205 1 1 1.63509 7.99451 3.32414 
286 1 1 2.43828 7.35362 3.07171 
192 1 1 3.20934 7.34847 2.31743 
190 1 1 4.08235 7.52714 1.55919 
111 1 1 3.89505 8.05284 2.47389 
115 1 1 5.75404 7.95548 2.30082 
195 1 1 5.7045 6.34602 2.3273 
196 1 1 4.86987 7.19463 2.24969 
200 1 1 6.51259 7.03739 2.45339 
117 1 1 6.42614 8.05033 1.48709 
184 1 1 7.86535 7.13137 2.41862 
119 1 1 7.34859 7.95363 2.41606 
201 1 1 7.98558 7.87473 3.36665 
302 1 1 0.791635 0.989523 4.8396 
223 1 1 0.898043 1.63451 3.96957 
325 1 1 1.68041 1.58991 4.85866 
203 1 1 0.775047 0.107284 4.09636 
208 1 1 1.58834 0.610709 4.08027 
306 1 1 2.37019 0.723119 4.89105 
329 1 1 2.98661 1.72025 4.81491 
227 1 1 2.34737 1.59004 4.05533 
212 1 1 3.31664 0.878629 4.10363 
231 1 1 4.17759 1.61259 4.20742 
216 1 1 4.84661 0.780142 4.08068 
310 1 1 4.06475 0.7278 4.83573 
309 1 1 3.30916 7.98804 5.08103 
237 1 1 6.4451 1.55241 3.19928 
220 1 1 6.62397 0.795129 4.07207 
235 1 1 5.7181 1.6131 4.04871 
215 1 1 5.71397 7.92558 4.01829 
337 1 1 6.46919 1.68686 4.75676 
204 1 1 8.0173 0.824747 3.96958 
219 1 1 7.23305 7.976 4.17242 
239 1 1 7.20849 1.64166 4.06094 
318 1 1 7.35413 0.895285 4.82745 
301 1 1 0.0240105 0.0780274 4.84104 
222 1 1 0.731757 2.40441 3.33536 
228 1 1 1.60683 2.42522 4.20838 
322 1 1 0.813433 2.24608 4.85256 
243 1 1 0.812925 3.12836 3.95858 
226 1 1 2.52622 2.26457 3.35469 
232 1 1 3.33613 2.48556 4.16283 
249 1 1 3.23705 3.03336 3.22954 
230 1 1 4.04431 2.32932 3.30895 
233 1 1 4.85729 1.62436 3.31874 
236 1 1 4.89144 2.37982 4.0622 
234 1 1 5.63479 2.42625 3.33747 
334 1 1 5.69171 2.46041 4.86972 
238 1 1 7.183 2.50452 3.22632 
224 1 1 7.94433 2.52669 3.92201 
341 1 1 0.0954974 3.01106 4.82409 
240 1 1 6.3818 2.508 4.14616 
338 1 1 7.2782 2.46172 4.79313 
248 1 1 1.49905 3.95572 4.0275 
358 1 1 8.01235 3.78443 3.89724 
246 1 1 2.44826 3.9955 3.18537 
247 1 1 2.53966 3.04641 3.99422 
267 1 1 2.30764 4.6963 4.02671 
346 1 1 2.3241 3.89081 4.8761 
250 1 1 4.07167 3.85414 3.31929 
252 1 1 3.22143 3.97199 4.06872 
251 1 1 4.07231 3.20194 4.05246 
349 1 1 3.29255 3.26605 5.05122 
254 1 1 5.49472 4.04556 3.3474 
255 1 1 5.6253 3.17887 4.05609 
256 1 1 4.74929 4.05389 4.09934 
275 1 1 5.52338 4.93252 4.03179 
353 1 1 4.85708 3.2055 4.75077 
261 1 1 0.010185 4.70566 3.18379 
260 1 1 6.42221 4.04503 4.02996 
259 1 1 7.23322 3.28241 4.08843 
377 1 1 6.55827 4.52243 4.86207 
357 1 1 6.41435 3.30416 4.84323 
262 1 1 0.728444 5.58007 3.44446 
265 1 1 1.56582 4.68308 3.3301 
263 1 1 0.634104 4.65267 4.11133 
268 1 1 1.54231 5.50367 4.08905 
264 1 1 8.05695 5.62515 4.10704 
266 1 1 2.38712 5.65763 3.23227 
269 1 1 3.13502 4.81799 3.23514 
272 1 1 3.20157 5.8016 3.88405 
271 1 1 4.10193 4.89616 4.14636 
270 1 1 4.0346 5.70442 3.17506 
291 1 1 3.99849 6.62617 4.13904 
276 1 1 4.85187 5.72484 4.01655 
295 1 1 5.6844 6.49533 3.91529 
374 1 1 5.65409 5.5282 4.95603 
280 1 1 6.41281 5.40515 4.06591 
278 1 1 7.13493 5.60236 3.34683 
279 1 1 7.29636 4.69169 4.10662 
299 1 1 7.31288 6.45827 4.11971 
285 1 1 1.58777 6.47714 3.24227 
283 1 1 0.762866 6.25915 4.23444 
282 1 1 0.79937 7.25646 3.52109 
288 1 1 1.76196 7.25609 4.0588 
305 1 1 1.49004 0.155852 5.17068 
284 1 1 8.08011 7.26037 4.27629 
209 1 1 3.16687 8.03093 3.18513 
289 1 1 3.34894 6.49494 3.08501 
207 1 1 2.45509 0.121129 4.10284 
287 1 1 2.42191 6.49971 4.03375 
290 1 1 3.9771 7.30768 3.1487 
211 1 1 4.07088 0.041574 4.04107 
292 1 1 3.15994 7.4101 4.20386 
213 1 1 4.84223 7.92152 3.1619 
293 1 1 4.87298 6.51476 3.1815 
294 1 1 5.66783 7.17668 3.05787 
296 1 1 4.79125 7.27933 4.06229 
300 1 1 6.5747 7.14967 4.12972 
317 1 1 6.40552 7.9372 4.86932 
281 1 1 0.0874257 6.40962 3.26913 
297 1 1 6.37878 6.22573 3.27592 
397 1 1 6.31533 6.418 4.85062 
298 1 1 7.30249 7.12944 3.3458 
398 1 1 7.25281 7.19207 4.89911 
308 1 1 1.75049 0.993181 5.64711 
402 1 1 0.626498 0.951283 6.49013 
323 1 1 0.909952 1.65617 5.6833 
304 1 1 0.0716052 0.992178 5.52772 
303 1 1 0.700785 0.04718 5.72763 
327 1 1 2.39045 1.71627 5.59111 
307 1 1 2.35753 0.107223 5.84186 
429 1 1 3.42517 1.56761 6.3576 
312 1 1 3.1613 0.812204 5.63239 
410 1 1 4.05132 0.721168 6.57591 
409 1 1 3.37731 8.06034 6.39108 
311 1 1 4.29704 0.0288372 5.65261 
314 1 1 5.72097 0.89333 4.78288 
316 1 1 4.87835 1.08864 5.7553 
320 1 1 6.60208 0.760278 5.50474 
315 1 1 5.45114 0.178768 5.56783 
414 1 1 5.84302 0.834472 6.46611 
321 1 1 0.0449071 1.69764 4.62767 
319 1 1 7.33313 0.134987 5.70499 
339 1 1 7.25022 1.67509 5.67505 
343 1 1 0.78453 3.2568 5.67984 
326 1 1 2.38747 2.56639 4.86625 
328 1 1 1.60165 2.52916 5.53576 
426 1 1 2.57436 2.29979 6.48294 
332 1 1 3.22375 2.29872 5.72337 
347 1 1 2.44263 3.21462 5.67487 
333 1 1 4.89989 1.80584 4.86782 
330 1 1 4.03127 2.5672 4.91007 
331 1 1 4.09517 1.61309 5.45361 
430 1 1 4.03181 2.34169 6.43162 
351 1 1 4.07553 3.2295 5.70955 
336 1 1 4.86148 2.5571 5.70722 
335 1 1 5.70462 1.67663 5.60241 
355 1 1 5.54101 3.25503 5.64498 
457 1 1 6.58172 3.19641 6.38937 
324 1 1 8.05841 2.28033 5.55254 
340 1 1 6.42275 2.43332 5.60701 
438 1 1 7.31483 2.54006 6.50393 
359 1 1 7.27806 3.17666 5.62408 
345 1 1 1.44551 3.27499 4.84227 
342 1 1 0.642023 4.00388 4.87775 
348 1 1 1.6072 3.9694 5.72999 
344 1 1 8.02427 3.91494 5.70816 
352 1 1 3.34418 4.0749 5.67522 
369 1 1 3.01903 4.69065 4.79758 
367 1 1 2.33249 4.86447 5.70925 
350 1 1 4.00367 4.01957 4.79941 
356 1 1 4.93837 4.08414 5.6878 
371 1 1 3.99363 4.83437 5.53024 
450 1 1 4.06121 4.08029 6.50797 
469 1 1 3.20672 4.91678 6.61221 
354 1 1 5.56122 4.02333 4.68631 
360 1 1 6.42492 3.88331 5.64898 
373 1 1 4.8662 4.92201 4.81238 
375 1 1 5.50792 4.86317 5.68494 
379 1 1 7.38715 4.01528 4.85088 
478 1 1 7.24654 4.70984 5.7453 
458 1 1 7.23737 4.02452 6.36655 
361 1 1 8.00136 4.90575 4.89028 
362 1 1 0.889661 5.68228 5.09138 
363 1 1 0.902392 4.84508 5.61381 
368 1 1 1.68876 5.63808 5.67359 
365 1 1 1.65905 4.82024 4.88149 
366 1 1 2.50097 5.7043 4.79535 
387 1 1 2.47007 6.47666 5.84308 
385 1 1 1.6831 6.54595 4.87997 
370 1 1 3.8565 5.67505 4.81751 
372 1 1 3.10237 5.58307 5.52792 
470 1 1 4.02981 5.59212 6.5976 
393 1 1 4.70747 6.36931 4.85034 
376 1 1 4.96107 5.78056 5.8216 
380 1 1 6.43619 5.5752 5.67216 
395 1 1 5.73779 6.41712 5.68307 
477 1 1 6.55985 4.87282 6.51502 
378 1 1 7.0372 5.60817 4.81588 
364 1 1 0.0714127 5.49953 5.83363 
497 1 1 6.61376 6.33895 6.55218 
382 1 1 0.842887 7.28878 4.96122 
383 1 1 0.799352 6.54544 5.7098 
388 1 1 1.4688 7.23903 5.84063 
405 1 1 1.44032 0.000343175 6.53826 
485 1 1 1.46204 6.45314 6.55967 
386 1 1 2.41777 7.19854 5.11485 
313 1 1 4.80688 8.01977 4.72735 
390 1 1 4.11146 7.18382 4.92013 
391 1 1 4.07295 6.37507 5.64502 
389 1 1 3.29077 6.49054 4.96355 
392 1 1 3.19554 7.13568 5.69933 
396 1 1 4.86465 7.12454 5.81377 
417 1 1 6.56912 0.0448082 6.39083 
394 1 1 5.5497 7.29834 4.85375 
400 1 1 6.50753 7.32513 5.75667 
381 1 1 7.92494 6.17505 4.94067 
399 1 1 7.24153 6.44839 5.78392 
384 1 1 7.99179 7.09701 5.57726 
498 1 1 7.30504 7.27238 6.54352 
5 1 1 1.51508 0.029125 7.9134 
2 1 1 0.709719 0.848211 8.04727 
1 1 1 7.91124 0.139833 0.00907713 
401 1 1 7.85204 0.111409 6.53229 
403 1 1 0.751735 0.222551 7.30212 
423 1 1 0.675043 1.6695 7.31312 
406 1 1 2.53464 0.902929 6.5222 
408 1 1 1.61909 0.84788 7.35806 
6 1 1 2.26802 0.838653 0.0304951 
412 1 1 3.32097 0.86843 7.30701 
10 1 1 4.118 0.722861 7.85514 
29 1 1 3.14951 1.48009 0.08493 
413 1 1 4.89619 0.140687 6.49209 
431 1 1 4.30848 1.58033 7.30952 
9 1 1 3.38555 0.0119806 8.04297 
37 1 1 6.4982 1.74303 -0.0114645 
13 1 1 4.99907 0.0185506 7.92589 
416 1 1 5.02401 0.803893 7.22818 
420 1 1 6.51197 0.959897 7.32117 
433 1 1 4.88661 1.80993 6.44897 
415 1 1 5.77524 0.0906313 7.22954 
18 1 1 7.24442 0.915153 8.03558 
418 1 1 7.1785 0.905791 6.4385 
17 1 1 6.39355 7.9813 8.06066 
404 1 1 7.87318 0.807448 7.23733 
419 1 1 7.10815 0.120212 7.22621 
25 1 1 1.55761 1.77684 0.024677 
22 1 1 0.961855 2.73416 0.287451 
422 1 1 0.894428 2.46644 6.4433 
441 1 1 0.0614987 3.28997 6.518 
425 1 1 1.64966 1.71383 6.42403 
428 1 1 1.73523 2.42741 7.32379 
427 1 1 2.54263 1.541 7.35358 
447 1 1 2.46225 3.25185 7.19638 
432 1 1 3.28593 2.27586 7.16869 
453 1 1 4.67311 3.27896 6.55712 
449 1 1 3.25663 3.09706 6.32714 
451 1 1 3.92149 3.24111 7.18842 
34 1 1 5.52079 2.37995 8.1014 
437 1 1 6.50706 1.77882 6.53092 
436 1 1 4.95715 2.52691 7.16246 
434 1 1 5.68755 2.53356 6.47191 
435 1 1 5.68442 1.70345 7.29554 
440 1 1 6.4044 2.60952 7.25087 
57 1 1 6.32097 3.08734 0.169774 
38 1 1 7.33124 2.41884 0.0641968 
21 1 1 7.99786 1.52756 0.0787789 
421 1 1 7.97478 1.6788 6.52069 
41 1 1 0.0458681 3.18502 8.04187 
424 1 1 8.07784 2.44731 7.33206 
439 1 1 7.14308 1.73667 7.30699 
459 1 1 7.38228 3.28018 7.25332 
42 1 1 0.898566 3.93654 0.050975 
442 1 1 0.875852 4.03073 6.54253 
443 1 1 0.743482 3.17628 7.33682 
461 1 1 -0.0194443 4.65224 6.49577 
446 1 1 2.28825 4.05598 6.34882 
445 1 1 1.6753 3.13998 6.46088 
448 1 1 1.66358 3.95034 7.24518 
467 1 1 2.38946 4.82826 7.22986 
473 1 1 4.89126 4.76734 6.48376 
452 1 1 3.1584 4.04636 7.2351 
471 1 1 4.05939 4.82254 7.21075 
456 1 1 4.74596 4.11103 7.34532 
77 1 1 6.40565 4.75072 8.00364 
455 1 1 5.59128 3.3025 7.3457 
454 1 1 5.73409 3.91628 6.4618 
475 1 1 5.58626 4.82231 7.3504 
61 1 1 8.02685 4.89666 0.0232797 
444 1 1 0.0844006 4.0023 7.31286 
460 1 1 6.49028 3.83276 7.24297 
479 1 1 7.08863 4.69884 7.34293 
462 1 1 0.786317 5.66145 6.62097 
465 1 1 1.63986 4.87299 6.46995 
463 1 1 0.919182 4.85579 7.23122 
468 1 1 1.68988 5.65074 7.18863 
466 1 1 2.43156 5.62488 6.48438 
487 1 1 2.34329 6.47024 7.2274 
70 1 1 4.01029 5.74142 8.05053 
472 1 1 3.28371 5.67835 7.32191 
491 1 1 3.96891 6.55586 7.25796 
476 1 1 4.76297 5.68662 7.24395 
89 1 1 3.22613 6.51085 8.06326 
74 1 1 5.71361 5.62934 8.02154 
474 1 1 5.72188 5.54278 6.5577 
493 1 1 5.11757 6.49904 6.48311 
495 1 1 5.66408 6.39667 7.302 
79 1 1 7.23434 5.57326 0.307766 
464 1 1 -0.0142491 5.63759 7.38982 
480 1 1 6.47954 5.60094 7.34984 
499 1 1 7.41805 5.76154 6.58035 
78 1 1 7.12886 6.39519 7.44509 
482 1 1 0.67023 7.35943 6.65243 
483 1 1 0.789976 6.47361 7.50999 
407 1 1 2.42899 0.0597344 7.34509 
489 1 1 3.18438 6.50931 6.58275 
488 1 1 1.6455 7.14566 7.32284 
486 1 1 2.40809 7.44099 6.56878 
492 1 1 3.19265 7.45506 7.22717 
90 1 1 4.05807 7.28182 8.00258 
411 1 1 4.14199 7.88723 7.1584 
490 1 1 4.07955 7.15104 6.38839 
496 1 1 4.90621 7.23263 7.29908 
94 1 1 5.62686 7.28422 7.99203 
494 1 1 5.63659 7.47467 6.29234 
500 1 1 6.45608 7.27798 7.30178 
481 1 1 0.0509726 6.55596 6.82198 
484 1 1 7.97638 7.5614 7.32452 
