ITEM: TIMESTEP
38000
ITEM: NUMBER OF ATOMS
500
ITEM: BOX BOUNDS pp pp pp
0 8.07388
0 8.07388
0 8.07388
ITEM: ATOMS id type mass x y z 
8 1 1 1.65691 0.824316 0.815753 
23 1 1 0.768443 1.53462 0.728349 
27 1 1 2.49441 1.5658 0.787726 
106 1 1 2.39451 0.91497 1.72583 
12 1 1 3.33366 0.925488 0.962478 
129 1 1 3.14159 1.71886 1.74265 
6 1 1 2.67881 0.946654 8.06924 
25 1 1 1.6827 1.54826 7.96011 
10 1 1 4.1781 0.938382 0.240425 
16 1 1 4.85013 0.783125 1.03743 
29 1 1 3.39388 1.67289 0.175598 
11 1 1 3.97548 0.053156 1.08955 
13 1 1 4.74207 0.0236515 0.114909 
15 1 1 5.60051 7.98977 0.958433 
20 1 1 6.52277 0.688115 0.974696 
17 1 1 6.41843 8.05936 0.113166 
114 1 1 5.70768 0.72733 1.79424 
4 1 1 8.00027 0.840798 0.872853 
18 1 1 7.30376 0.865961 0.0116046 
21 1 1 8.045 1.57307 8.0007 
118 1 1 7.32473 0.721469 1.68937 
24 1 1 0.0409802 2.22111 0.749081 
43 1 1 0.818024 3.28269 0.790798 
141 1 1 8.04306 3.15108 1.44669 
22 1 1 0.845126 2.32834 8.07399 
41 1 1 0.00821035 3.37959 0.0853427 
28 1 1 1.74885 2.32666 0.852757 
32 1 1 3.29651 2.42982 0.879387 
26 1 1 2.42995 2.37699 0.0695893 
49 1 1 3.5013 3.1286 0.156021 
31 1 1 4.08143 1.72288 1.08758 
30 1 1 4.26495 2.33297 0.0620788 
36 1 1 5.0196 2.23308 0.872058 
130 1 1 4.11175 2.41655 1.84341 
149 1 1 3.16705 3.33077 1.64526 
35 1 1 5.79562 1.4392 0.875974 
133 1 1 4.95434 1.58776 1.90897 
134 1 1 5.75759 2.35012 1.71664 
34 1 1 5.64812 2.35297 7.99264 
37 1 1 6.41186 1.54002 0.0147664 
137 1 1 6.48236 1.49585 1.70054 
40 1 1 6.39091 2.32464 0.840872 
39 1 1 7.23832 1.60191 0.865843 
63 1 1 0.61489 4.9401 0.677417 
44 1 1 7.98063 4.05688 0.820872 
142 1 1 0.910946 4.06586 1.40184 
47 1 1 2.46285 3.22952 0.674578 
45 1 1 1.67214 3.13229 8.01383 
48 1 1 1.74285 4.0013 0.629131 
67 1 1 2.34282 4.95755 0.921758 
146 1 1 2.28085 4.01877 1.56345 
46 1 1 2.61159 4.05828 0.0573546 
51 1 1 4.13565 3.11431 1.05672 
52 1 1 3.40001 4.07573 0.87406 
71 1 1 4.02976 4.84644 0.942799 
69 1 1 3.45923 4.7835 7.99422 
56 1 1 4.92514 3.95022 0.912715 
55 1 1 5.66507 3.16359 0.675892 
154 1 1 5.72635 4.03172 1.57833 
173 1 1 4.89771 4.78788 1.64727 
60 1 1 6.49654 4.07218 0.88952 
59 1 1 7.17647 3.1736 0.635037 
157 1 1 6.52969 3.20963 1.65215 
158 1 1 7.20021 4.05511 1.6499 
163 1 1 8.06883 4.82453 1.4843 
62 1 1 0.948912 5.76209 8.00971 
68 1 1 1.54847 5.649 0.792301 
83 1 1 0.842733 6.48707 0.744831 
64 1 1 8.02444 5.71121 0.800554 
81 1 1 0.0258134 6.47047 7.97108 
65 1 1 1.64256 4.93179 0.00013367 
66 1 1 2.36596 5.74474 0.0682271 
85 1 1 1.61747 6.58242 7.94566 
87 1 1 2.29975 6.60706 0.710915 
165 1 1 1.43574 4.96416 1.61698 
72 1 1 3.20341 5.73418 0.697645 
91 1 1 3.93462 6.58764 0.834023 
73 1 1 4.62195 5.00404 8.08416 
75 1 1 5.51937 4.81064 0.765044 
76 1 1 4.77297 5.60481 0.893616 
80 1 1 6.43152 5.58525 0.803382 
177 1 1 6.34544 4.98813 1.74396 
161 1 1 7.20194 4.77721 0.870479 
99 1 1 7.19023 6.54939 0.654251 
178 1 1 7.12615 5.78775 1.52677 
79 1 1 7.30254 5.59737 8.06508 
3 1 1 0.733066 0.0790224 0.875749 
82 1 1 0.771215 7.42205 8.06748 
84 1 1 0.0330105 7.22545 0.693035 
7 1 1 2.50676 0.216917 0.910925 
5 1 1 1.63838 0.24931 7.95743 
88 1 1 1.57442 7.32794 0.776792 
92 1 1 3.0711 7.44206 0.826521 
93 1 1 4.88497 6.50336 7.97437 
96 1 1 4.85237 7.18741 0.835856 
189 1 1 3.11408 6.62466 1.57956 
90 1 1 4.01373 7.2584 8.01055 
95 1 1 5.62516 6.31761 0.64704 
94 1 1 5.64999 7.25365 0.0682609 
19 1 1 7.21696 8.00337 0.91137 
181 1 1 0.0283131 6.49844 1.5149 
100 1 1 6.43921 7.28379 1.00341 
98 1 1 7.23148 7.30244 0.0106453 
101 1 1 0.0868744 0.093973 1.67607 
102 1 1 0.850299 0.889658 1.58489 
202 1 1 0.709065 0.679257 3.12959 
123 1 1 0.708559 1.62945 2.39094 
125 1 1 1.54584 1.65618 1.72795 
108 1 1 1.6496 0.817304 2.46457 
127 1 1 2.34478 1.77213 2.40337 
107 1 1 2.3887 7.97227 2.46238 
113 1 1 4.75609 8.05876 1.75783 
112 1 1 3.14292 0.922037 2.54816 
109 1 1 3.17738 8.0397 1.71101 
110 1 1 4.14501 0.891516 1.8682 
116 1 1 4.83873 0.790899 2.63417 
111 1 1 4.02985 8.03034 2.50578 
213 1 1 4.82143 7.95813 3.24413 
115 1 1 5.58655 8.03779 2.65136 
120 1 1 6.43749 0.790784 2.4892 
104 1 1 7.92781 0.867574 2.4391 
121 1 1 7.95611 1.68784 1.63611 
122 1 1 0.787521 2.51033 1.41501 
124 1 1 8.02244 2.4754 2.26624 
126 1 1 2.45533 2.52839 1.52456 
128 1 1 1.43695 2.50387 2.42546 
226 1 1 2.36787 2.50609 3.19542 
132 1 1 3.25198 2.67529 2.45828 
131 1 1 4.10707 1.63734 2.57798 
136 1 1 5.00388 2.37205 2.51357 
153 1 1 4.94285 3.09098 1.82276 
135 1 1 5.72949 1.62866 2.49503 
140 1 1 6.39342 2.52389 2.52041 
139 1 1 7.13539 1.59041 2.40856 
138 1 1 7.21552 2.38254 1.54544 
238 1 1 7.3505 2.55971 3.39439 
237 1 1 6.51367 1.73492 3.27765 
143 1 1 0.785257 3.29291 2.41633 
148 1 1 1.48533 4.17943 2.41587 
144 1 1 8.05282 4.0741 2.32128 
245 1 1 1.61589 3.38414 3.08244 
145 1 1 1.58835 3.22017 1.58108 
147 1 1 2.42092 3.38474 2.4153 
152 1 1 3.2778 3.98076 2.37715 
246 1 1 2.36069 4.09103 3.276 
169 1 1 3.32377 4.89841 1.65009 
151 1 1 4.06478 3.27981 2.42894 
150 1 1 4.11536 4.04829 1.6336 
171 1 1 3.95105 4.91356 2.46946 
156 1 1 4.7991 4.2224 2.55427 
155 1 1 5.67988 3.25572 2.47845 
160 1 1 6.42771 4.06898 2.57331 
159 1 1 7.30937 3.27638 2.37864 
179 1 1 7.15711 4.86489 2.4607 
277 1 1 6.54311 4.96595 3.25398 
162 1 1 0.630819 5.71166 1.6118 
185 1 1 1.56817 6.52557 1.65165 
242 1 1 0.853535 4.94581 2.50805 
265 1 1 1.56126 4.78383 3.41795 
262 1 1 0.692489 5.7458 3.24674 
166 1 1 2.34618 5.82843 1.4199 
168 1 1 1.674 5.76304 2.39777 
167 1 1 2.39044 4.90505 2.15872 
172 1 1 3.05966 5.85294 2.46069 
170 1 1 3.91644 5.82374 1.6477 
270 1 1 4.09272 5.60538 3.25924 
191 1 1 4.0891 6.51062 2.38976 
293 1 1 4.64535 6.45133 3.27263 
273 1 1 4.87849 4.94265 3.25923 
174 1 1 5.51714 5.55726 1.55319 
197 1 1 6.27539 6.3952 1.73503 
175 1 1 5.75863 4.78951 2.58507 
176 1 1 4.66939 5.63474 2.35 
195 1 1 5.48918 6.25675 2.40042 
274 1 1 5.62986 5.68864 3.19519 
180 1 1 6.58225 5.70909 2.4431 
164 1 1 7.90177 5.72658 2.30341 
199 1 1 7.21077 6.53348 2.45642 
278 1 1 7.33194 5.69944 3.34528 
261 1 1 0.0410902 4.8501 3.37364 
182 1 1 0.758743 7.25924 1.49845 
183 1 1 0.785857 6.4012 2.49783 
285 1 1 1.6095 6.39617 3.16974 
103 1 1 0.865715 8.03832 2.28651 
282 1 1 0.558718 7.25849 3.23884 
188 1 1 1.50093 7.17409 2.57827 
105 1 1 1.5897 0.0597104 1.62534 
186 1 1 2.3346 7.37592 1.53237 
187 1 1 2.35374 6.66897 2.32916 
190 1 1 4.00518 7.23453 1.79145 
192 1 1 3.18419 7.12408 2.43774 
193 1 1 4.81851 6.52568 1.57903 
290 1 1 3.94538 7.38427 3.31821 
196 1 1 4.83909 7.24639 2.55088 
194 1 1 5.61993 7.26066 1.84673 
200 1 1 6.45142 7.18309 2.55061 
294 1 1 5.61518 7.25339 3.32633 
117 1 1 6.44537 7.96105 1.77378 
119 1 1 7.20594 8.02111 2.44514 
281 1 1 7.98933 6.49844 3.19747 
184 1 1 8.05374 7.33824 2.32202 
201 1 1 7.9568 0.0455356 3.02534 
198 1 1 7.24027 7.15162 1.62027 
208 1 1 1.44694 0.803651 3.90186 
325 1 1 1.47823 1.46784 4.75681 
321 1 1 0.00653463 1.63952 4.85263 
225 1 1 1.44889 1.57561 3.09603 
206 1 1 2.31475 0.838483 3.33624 
227 1 1 2.39685 1.62678 3.99894 
209 1 1 3.12046 0.0359163 3.25346 
207 1 1 2.24285 8.02907 4.16778 
212 1 1 3.19827 0.84094 4.03047 
210 1 1 4.03069 0.86387 3.26719 
310 1 1 3.98905 0.908851 4.79648 
333 1 1 4.81731 1.59138 4.57939 
216 1 1 4.83117 0.75257 3.92514 
214 1 1 5.75243 0.741074 3.39672 
215 1 1 5.6148 8.05569 4.07134 
220 1 1 6.53179 0.909744 4.05695 
204 1 1 8.00225 0.672834 3.94075 
217 1 1 6.49208 8.02891 3.3156 
218 1 1 7.20787 0.834431 3.21727 
239 1 1 7.36868 1.72043 3.99116 
318 1 1 7.42036 0.883339 4.81796 
222 1 1 0.78497 2.53393 3.22968 
223 1 1 0.706343 1.79015 3.98642 
322 1 1 0.727061 2.47217 4.83122 
221 1 1 0.0190975 1.84524 3.07591 
228 1 1 1.56576 2.53641 3.98596 
247 1 1 2.36374 3.29422 3.93106 
232 1 1 3.11717 2.45675 4.09174 
233 1 1 4.98463 1.62129 3.2129 
229 1 1 3.23036 1.75706 3.23517 
230 1 1 4.12437 2.49355 3.04637 
231 1 1 4.023 1.78635 3.90149 
236 1 1 5.00147 2.49326 3.89233 
253 1 1 4.91233 3.19493 3.14422 
234 1 1 5.74104 2.52248 3.29735 
235 1 1 5.6724 1.61487 3.9376 
255 1 1 5.70308 3.28953 4.04092 
240 1 1 6.49498 2.43035 4.19984 
357 1 1 6.58135 3.30483 4.97197 
257 1 1 6.51588 3.1567 3.26064 
224 1 1 0.0311212 2.5217 4.02134 
338 1 1 7.44636 2.46341 4.80284 
241 1 1 0.00763252 3.28594 3.09558 
244 1 1 0.840852 4.06054 3.21294 
243 1 1 0.846578 3.40416 3.94996 
358 1 1 0.0728006 4.02089 4.07204 
248 1 1 1.77042 4.07991 4.12332 
252 1 1 3.31196 3.90236 4.0841 
249 1 1 3.34589 3.17224 3.2877 
251 1 1 4.18988 3.20586 4.00389 
250 1 1 4.08371 4.07032 3.22721 
353 1 1 4.70792 3.1414 4.99113 
350 1 1 4.18863 3.99832 4.88371 
256 1 1 4.9987 4.04043 4.104 
254 1 1 5.75241 3.97877 3.33432 
354 1 1 5.66726 3.86142 4.92292 
258 1 1 7.19843 3.98726 3.24477 
259 1 1 7.26498 3.25156 4.14467 
260 1 1 6.54794 3.94055 4.0986 
279 1 1 7.28635 4.80479 3.94393 
263 1 1 0.8432 4.76691 4.22398 
264 1 1 7.96531 5.81008 4.1563 
268 1 1 1.63668 5.55927 4.14776 
385 1 1 1.69327 6.48419 4.82913 
269 1 1 3.02881 4.94383 3.05717 
267 1 1 2.67533 4.87336 4.08637 
266 1 1 2.33979 5.75798 3.17422 
272 1 1 3.56724 5.58892 4.10371 
271 1 1 4.20627 4.68804 4.1416 
370 1 1 4.0216 5.67232 4.99171 
373 1 1 4.87524 4.7435 4.97575 
275 1 1 5.63392 4.93357 4.08295 
276 1 1 4.71617 5.5876 4.19417 
295 1 1 5.61598 6.27955 4.06899 
297 1 1 6.40442 6.37064 3.33763 
280 1 1 6.57817 5.59871 4.07477 
205 1 1 1.50024 7.96892 3.393 
283 1 1 0.891441 6.49763 3.93499 
203 1 1 0.694966 8.03236 4.05466 
288 1 1 1.79452 7.07811 3.91181 
286 1 1 2.48452 7.05386 3.26025 
287 1 1 2.61507 6.32069 4.16855 
292 1 1 3.22665 7.16808 4.06544 
289 1 1 3.45731 6.41904 3.29525 
211 1 1 3.96282 0.152228 4.09466 
291 1 1 4.10532 6.50291 4.15698 
296 1 1 4.76655 7.37179 4.07675 
390 1 1 4.05711 7.41407 4.72311 
393 1 1 4.78759 6.51991 5.11018 
300 1 1 6.51947 7.368 4.06117 
394 1 1 5.52101 7.2993 4.83563 
317 1 1 6.68757 0.149481 4.87336 
219 1 1 7.27961 7.98674 3.99725 
299 1 1 7.19863 6.57172 4.12757 
284 1 1 8.05259 7.2657 4.14719 
298 1 1 7.18596 7.1825 3.30118 
302 1 1 0.651283 0.74037 4.86331 
305 1 1 1.50678 8.04602 4.8447 
303 1 1 0.821566 0.161206 5.75607 
323 1 1 0.85895 1.69293 5.61094 
329 1 1 3.22864 1.6363 4.72898 
308 1 1 1.54197 0.815025 5.61187 
306 1 1 2.47788 0.808444 4.78789 
312 1 1 3.29628 0.673545 5.70344 
406 1 1 2.44634 0.795867 6.40807 
327 1 1 2.51859 1.52361 5.53774 
331 1 1 3.8752 1.56814 5.70817 
410 1 1 4.03291 0.683261 6.40711 
429 1 1 3.22506 1.64625 6.55063 
316 1 1 4.8878 0.792689 5.62488 
314 1 1 5.84506 0.848726 4.78046 
414 1 1 5.65145 0.761593 6.32073 
320 1 1 6.52621 0.834052 5.50873 
315 1 1 5.60709 8.02885 5.54075 
301 1 1 7.95809 8.06916 4.75156 
304 1 1 7.98209 0.827959 5.63797 
339 1 1 7.20475 1.65432 5.61952 
319 1 1 7.27504 0.0380804 5.64703 
328 1 1 1.5642 2.3837 5.76209 
324 1 1 0.0134327 2.37697 5.69285 
343 1 1 0.79878 3.23923 5.69494 
341 1 1 0.0672681 3.25355 4.89108 
422 1 1 0.856005 2.26634 6.53914 
326 1 1 2.32521 2.42901 4.7225 
426 1 1 2.43198 2.38972 6.47396 
330 1 1 4.0814 2.43173 4.78326 
332 1 1 3.18273 2.31771 5.63983 
351 1 1 4.00913 2.96339 5.74194 
336 1 1 4.69757 2.1151 5.588 
337 1 1 6.51644 1.61015 4.90699 
335 1 1 5.54469 1.70453 5.43562 
334 1 1 5.72478 2.57115 4.7195 
434 1 1 5.65762 2.37535 6.37682 
437 1 1 6.31405 1.6151 6.41943 
340 1 1 6.67926 2.55104 5.66714 
438 1 1 7.32866 2.55655 6.47447 
457 1 1 6.26901 3.18578 6.46191 
359 1 1 7.26012 3.30325 5.71754 
345 1 1 1.63979 3.16798 4.94936 
342 1 1 0.870558 3.82727 4.83695 
361 1 1 8.00383 4.87406 4.81453 
344 1 1 8.03337 3.87767 5.81515 
348 1 1 1.70545 3.97699 5.6734 
363 1 1 0.778135 4.87966 5.59069 
346 1 1 2.52136 3.90475 4.86297 
347 1 1 2.40225 3.05046 5.57566 
365 1 1 1.55509 4.86788 4.93759 
349 1 1 3.32108 3.21155 4.83036 
352 1 1 3.44266 3.77603 5.63568 
356 1 1 4.85765 3.90153 5.78252 
371 1 1 3.89826 4.85087 5.656 
473 1 1 4.722 4.75636 6.31741 
355 1 1 5.56683 3.0964 5.68469 
454 1 1 5.57614 3.89588 6.64644 
360 1 1 6.5243 4.10396 5.52286 
375 1 1 5.66043 4.65385 5.82582 
377 1 1 6.42272 4.72413 4.76631 
477 1 1 6.4061 4.88214 6.53071 
379 1 1 7.43473 4.08143 4.7986 
478 1 1 7.21403 4.76972 5.76976 
362 1 1 0.74137 5.63941 4.78979 
368 1 1 1.52272 5.617 5.53133 
383 1 1 0.73598 6.51418 5.58613 
366 1 1 2.65561 5.62117 4.97208 
367 1 1 2.61876 4.54245 5.73709 
387 1 1 2.47971 6.21869 5.90094 
372 1 1 3.29764 5.60848 5.70717 
389 1 1 3.34225 6.43521 4.91141 
489 1 1 3.27193 6.40282 6.40728 
369 1 1 3.30814 4.64845 4.78243 
469 1 1 3.35408 4.77714 6.47765 
470 1 1 4.03892 5.66946 6.37978 
391 1 1 4.03919 6.49953 5.72036 
493 1 1 4.87586 6.29642 6.41764 
374 1 1 5.71763 5.51789 4.88555 
397 1 1 6.3897 6.49999 4.70954 
376 1 1 5.02962 5.54279 5.67404 
474 1 1 5.69202 5.69426 6.47177 
378 1 1 7.19177 5.60769 4.83243 
381 1 1 0.0361171 6.53007 4.90525 
380 1 1 6.31365 5.55613 5.71608 
364 1 1 8.01732 5.64811 5.64176 
382 1 1 0.805233 7.28179 4.79605 
384 1 1 7.98425 7.32995 5.62262 
388 1 1 1.54338 7.34 5.61828 
405 1 1 1.67764 0.0816664 6.45437 
386 1 1 2.3578 7.24509 4.99099 
307 1 1 2.32595 0.0613139 5.65744 
392 1 1 3.35591 7.21746 5.67186 
486 1 1 2.45869 7.13805 6.29794 
309 1 1 3.14823 7.99903 4.75879 
311 1 1 4.12089 8.04234 5.65474 
409 1 1 3.28155 7.99603 6.39278 
490 1 1 4.01214 7.28353 6.57458 
313 1 1 4.7867 0.111037 4.86319 
396 1 1 4.7734 7.28903 5.78356 
395 1 1 5.57379 6.48683 5.67055 
400 1 1 6.27108 7.2266 5.46998 
417 1 1 6.35696 7.95364 6.39874 
398 1 1 7.16356 7.28783 4.93857 
399 1 1 7.0552 6.42486 5.61434 
2 1 1 0.793955 0.766137 8.04744 
402 1 1 0.780739 0.880517 6.52121 
404 1 1 0.0284179 0.757666 7.21473 
425 1 1 1.68756 1.58653 6.42075 
408 1 1 1.56407 0.923964 7.21235 
427 1 1 2.47544 1.52865 7.17245 
413 1 1 4.90893 0.110223 6.37929 
412 1 1 3.24623 0.763691 7.07925 
431 1 1 4.0465 1.3958 7.38445 
416 1 1 4.97387 0.767718 7.35437 
433 1 1 4.79231 1.58609 6.51822 
14 1 1 5.57828 0.610015 0.197572 
420 1 1 6.3509 0.872169 7.357 
1 1 1 7.96312 0.0106827 0.056512 
418 1 1 7.1479 0.737352 6.37145 
419 1 1 7.21686 8.05487 7.29912 
441 1 1 0.127095 3.17713 6.60594 
423 1 1 0.644447 1.59426 7.31895 
424 1 1 0.0042897 2.48082 7.40674 
443 1 1 0.809173 3.21266 7.36328 
445 1 1 1.68771 3.16922 6.65878 
428 1 1 1.58491 2.31347 7.2832 
447 1 1 2.50275 3.08711 7.40618 
33 1 1 4.95139 1.61013 0.0508603 
430 1 1 4.10092 2.27793 6.57449 
432 1 1 3.28128 2.39088 7.4885 
451 1 1 4.16541 3.14941 7.39966 
57 1 1 6.40285 3.2148 8.00882 
435 1 1 5.5415 1.61437 7.21526 
436 1 1 4.84274 2.34717 7.27683 
455 1 1 5.47805 3.12989 7.35553 
421 1 1 8.01908 1.5468 6.42293 
440 1 1 6.41859 2.38613 7.18098 
38 1 1 7.18027 2.33727 0.0237363 
439 1 1 7.18618 1.61259 7.35589 
42 1 1 0.870716 4.22915 0.0430962 
442 1 1 0.896975 4.01538 6.51229 
444 1 1 0.0615021 4.08054 7.09856 
448 1 1 1.68468 4.16361 7.31345 
446 1 1 2.32911 3.85367 6.50859 
453 1 1 4.81246 2.9913 6.41151 
450 1 1 4.07107 3.7435 6.57711 
449 1 1 3.3863 3.05784 6.68885 
452 1 1 3.41041 3.94109 7.42831 
50 1 1 4.19823 3.99872 0.137641 
456 1 1 4.83639 4.03386 7.35948 
54 1 1 5.53923 4.07962 0.0566679 
53 1 1 4.84107 3.14549 0.121209 
460 1 1 6.52749 4.04607 7.25764 
58 1 1 7.16991 3.97536 0.0828522 
458 1 1 7.20331 4.13663 6.56055 
461 1 1 0.217834 4.85567 6.35151 
459 1 1 7.45865 3.38377 7.31519 
463 1 1 0.83448 5.00521 7.21849 
462 1 1 0.959295 5.80365 6.43691 
483 1 1 0.770714 6.64744 7.20192 
485 1 1 1.55717 6.62382 6.46123 
466 1 1 2.39218 5.3784 6.53834 
465 1 1 1.62124 4.83391 6.24701 
467 1 1 2.70575 4.87483 7.38469 
468 1 1 1.61905 5.56611 7.26945 
472 1 1 3.35999 5.71936 7.23533 
70 1 1 4.00555 5.8608 8.06713 
471 1 1 4.12955 4.81573 7.1638 
476 1 1 4.91971 5.61127 7.18465 
97 1 1 6.44768 6.45664 0.0508547 
77 1 1 6.37478 4.71354 0.0319329 
74 1 1 5.61408 5.52643 8.00725 
475 1 1 5.63311 4.84914 7.2345 
495 1 1 5.65478 6.5445 7.34875 
480 1 1 6.50896 5.61983 7.40322 
499 1 1 7.25022 5.64098 6.54805 
479 1 1 7.1749 4.88851 7.27328 
481 1 1 0.06401 6.47769 6.41822 
61 1 1 7.91995 4.71317 7.96702 
464 1 1 8.05713 5.71044 7.26842 
403 1 1 0.742634 0.0441858 7.20299 
482 1 1 0.922536 7.38669 6.51241 
488 1 1 1.88927 7.19717 7.20318 
401 1 1 7.93417 0.0302806 6.47993 
89 1 1 3.24868 6.56917 8.06285 
9 1 1 3.45298 0.248415 0.0829414 
407 1 1 2.46781 0.131797 7.34014 
487 1 1 2.49924 6.31831 7.17395 
86 1 1 2.4886 7.36536 8.05482 
492 1 1 3.0636 7.32025 7.21964 
411 1 1 3.91061 0.0274389 7.19451 
491 1 1 4.0909 6.38552 7.09911 
496 1 1 4.92411 7.29948 7.35559 
494 1 1 5.53081 7.28265 6.56618 
497 1 1 6.47522 6.40677 6.56455 
415 1 1 5.72235 8.05151 7.39799 
500 1 1 6.43274 7.17747 7.344 
78 1 1 7.32768 6.46838 7.19129 
484 1 1 8.01527 7.29507 7.15308 
498 1 1 7.20498 7.35128 6.40372 
