ITEM: TIMESTEP
50000
ITEM: NUMBER OF ATOMS
500
ITEM: BOX BOUNDS pp pp pp
0 8.07388
0 8.07388
0 8.07388
ITEM: ATOMS id type mass x y z 
8 1 1 1.48974 0.839245 0.768492 
2 1 1 0.764638 0.822827 7.93508 
4 1 1 0.182377 0.723992 0.792854 
3 1 1 0.75956 7.95863 0.787201 
1 1 1 0.0253117 7.89341 0.110145 
12 1 1 3.18085 0.74591 0.803283 
106 1 1 2.40714 0.923446 1.4051 
129 1 1 3.2973 1.66007 1.695 
125 1 1 1.57452 1.62611 1.46555 
11 1 1 4.14141 8.01881 0.86978 
16 1 1 4.94299 0.737058 0.72867 
31 1 1 4.07898 1.62923 0.827018 
20 1 1 6.57937 0.766643 0.867718 
35 1 1 5.78092 1.57753 0.724746 
15 1 1 5.69339 0.00625445 0.74505 
117 1 1 6.57302 7.98704 1.5945 
14 1 1 5.67092 0.79845 0.0342855 
121 1 1 7.99393 1.56643 1.55681 
39 1 1 7.47233 1.61027 0.668182 
19 1 1 7.38539 8.05115 1.00249 
23 1 1 0.764653 1.70463 0.8343 
28 1 1 1.62535 2.48522 0.781108 
22 1 1 0.915699 2.68531 8.01391 
43 1 1 0.802375 3.35123 0.844082 
122 1 1 0.806087 2.48074 1.50224 
145 1 1 1.58551 3.24857 1.5276 
27 1 1 2.32604 1.65585 0.685749 
32 1 1 3.24784 2.37798 1.01488 
29 1 1 3.29684 1.67846 0.148358 
30 1 1 4.18215 2.48485 0.0332148 
51 1 1 3.89734 3.27449 0.787296 
149 1 1 3.2214 3.23951 1.69512 
36 1 1 4.71916 2.58022 0.894386 
40 1 1 6.46584 2.36103 0.616721 
57 1 1 6.27632 3.18052 0.0833583 
37 1 1 6.17229 1.73213 7.88794 
33 1 1 4.918 1.58637 0.0947406 
34 1 1 5.50169 2.42394 0.0546868 
24 1 1 0.0709268 2.53737 0.63023 
38 1 1 7.38521 2.3662 7.9812 
138 1 1 7.36754 2.34071 1.43764 
41 1 1 0.13395 3.45855 0.0846268 
42 1 1 0.921726 4.09568 8.02215 
141 1 1 0.018119 3.24281 1.43512 
142 1 1 0.82146 4.03738 1.66191 
47 1 1 2.49106 3.24854 0.808776 
48 1 1 1.52908 4.08487 0.788636 
67 1 1 2.33493 4.87654 0.847276 
46 1 1 2.50481 4.02827 0.045389 
52 1 1 3.11497 4.16377 0.825393 
50 1 1 3.77489 4.07842 0.0828715 
71 1 1 4.0681 4.73007 0.82208 
69 1 1 3.10397 5.01754 0.0709452 
169 1 1 3.13709 4.878 1.49564 
55 1 1 5.58869 3.14383 0.904675 
56 1 1 4.87402 4.09599 0.780865 
54 1 1 5.58648 4.08385 8.00049 
154 1 1 5.78694 4.0089 1.59243 
44 1 1 8.09524 4.10053 0.929445 
60 1 1 6.45351 4.1793 0.701593 
59 1 1 7.32887 3.23301 0.490151 
158 1 1 7.25816 4.04352 1.50893 
63 1 1 0.800245 4.88704 0.785758 
68 1 1 1.52594 5.49135 0.981237 
81 1 1 -0.00311623 6.48289 0.0658828 
64 1 1 0.106791 5.64727 0.826596 
83 1 1 0.747446 6.38287 0.872841 
163 1 1 8.04652 4.94238 1.84388 
66 1 1 2.30649 5.63501 0.116569 
87 1 1 2.46329 6.48443 0.898841 
89 1 1 3.07384 6.41424 0.0753233 
72 1 1 3.1895 5.69753 0.828164 
170 1 1 4.0464 5.62251 1.57604 
70 1 1 3.87827 5.76762 8.05489 
76 1 1 4.75258 5.55914 0.674101 
75 1 1 5.61671 4.98217 0.799663 
173 1 1 4.96454 4.8542 1.53584 
161 1 1 7.32619 4.85411 0.855643 
77 1 1 6.56993 4.80122 7.97261 
80 1 1 6.47118 5.5552 0.831931 
99 1 1 7.28924 6.43166 0.885162 
88 1 1 1.52162 7.21323 0.903084 
84 1 1 8.02256 7.21146 0.98579 
82 1 1 0.880318 7.20354 0.0582354 
7 1 1 2.3169 0.030808 0.747249 
92 1 1 3.18302 7.39262 0.790775 
91 1 1 3.92557 6.41954 0.857016 
90 1 1 3.8913 7.31641 0.0405638 
96 1 1 4.97058 7.20679 0.734133 
9 1 1 3.18189 8.03388 0.00325012 
93 1 1 4.70847 6.3663 0.054412 
95 1 1 5.58902 6.28802 0.618144 
94 1 1 5.67311 7.21021 0.0133453 
194 1 1 5.80693 7.41051 1.57159 
100 1 1 6.43329 7.20014 0.886759 
198 1 1 7.15565 7.09398 1.62115 
181 1 1 0.0032951 6.40417 1.59794 
102 1 1 0.804215 0.757303 1.65608 
105 1 1 1.58514 0.048208 1.52516 
205 1 1 1.45796 0.0779303 3.19796 
103 1 1 0.972903 0.0721941 2.39171 
101 1 1 -0.000427211 7.88481 1.71162 
108 1 1 1.60372 0.834674 2.44653 
107 1 1 2.43036 8.04491 2.48761 
112 1 1 3.05246 0.845596 2.40156 
206 1 1 2.48832 0.863738 3.27707 
110 1 1 4.0736 0.742252 1.45738 
111 1 1 3.95315 0.0925888 2.4513 
116 1 1 4.96667 0.87311 2.47727 
113 1 1 4.9516 8.06682 1.55329 
210 1 1 4.14049 0.840284 3.19282 
114 1 1 5.74965 0.747323 1.51139 
133 1 1 4.92845 1.48958 1.56919 
135 1 1 5.77162 1.49294 2.43749 
115 1 1 5.76978 0.0313478 2.40705 
118 1 1 7.29704 0.831436 1.65547 
137 1 1 6.5272 1.53147 1.64936 
104 1 1 8.0332 0.769178 2.34421 
120 1 1 6.49163 0.740735 2.37889 
139 1 1 7.2329 1.60907 2.35444 
119 1 1 7.23756 7.94747 2.3665 
123 1 1 0.798642 1.66541 2.23477 
128 1 1 1.49328 2.50605 2.43127 
241 1 1 7.96729 3.23762 3.09945 
126 1 1 2.38473 2.55072 1.74969 
127 1 1 2.37465 1.6865 2.34816 
226 1 1 2.28246 2.48504 3.06172 
147 1 1 2.48626 3.22993 2.41298 
132 1 1 3.24752 2.42657 2.43159 
130 1 1 4.1388 2.50932 1.6436 
131 1 1 4.143 1.54025 2.40349 
151 1 1 4.0599 3.27899 2.36801 
134 1 1 5.58123 2.26036 1.5721 
153 1 1 4.80031 3.3698 1.50202 
136 1 1 4.8299 2.38208 2.37871 
155 1 1 5.71093 3.1322 2.31807 
157 1 1 6.61553 3.16758 1.48757 
124 1 1 8.03626 2.38776 2.38121 
140 1 1 6.57911 2.40118 2.3479 
159 1 1 7.22383 3.26385 2.292 
257 1 1 6.34305 3.18529 3.11835 
143 1 1 0.736892 3.11496 2.31228 
148 1 1 1.525 3.97738 2.44123 
242 1 1 0.85702 4.73779 2.48582 
165 1 1 1.58514 4.72971 1.79377 
261 1 1 7.77144 4.86799 3.04318 
146 1 1 2.38537 3.9353 1.61347 
167 1 1 2.42414 4.75144 2.34709 
265 1 1 1.47627 4.73333 3.2262 
150 1 1 3.99102 4.06974 1.76905 
249 1 1 3.36917 3.4288 3.22819 
152 1 1 3.21914 4.16238 2.43623 
250 1 1 4.29368 3.87822 3.23544 
171 1 1 4.20938 4.91446 2.40279 
156 1 1 4.94582 4.03392 2.32378 
253 1 1 4.97287 3.08681 3.22586 
160 1 1 6.21742 4.01732 2.48656 
144 1 1 8.07236 4.01245 2.31676 
277 1 1 6.4046 4.81805 3.34192 
162 1 1 0.835438 5.49742 1.69779 
168 1 1 1.72672 5.46169 2.51256 
285 1 1 1.48414 6.6452 3.15385 
262 1 1 0.774558 5.65498 3.18458 
166 1 1 2.26392 5.57284 1.6543 
187 1 1 2.29525 6.36314 2.35786 
289 1 1 3.41576 6.27366 3.34206 
266 1 1 2.46605 5.75044 3.2211 
189 1 1 3.15497 6.32141 1.7279 
172 1 1 3.19372 5.46893 2.28218 
270 1 1 4.13835 5.68293 3.40809 
191 1 1 3.9295 6.36882 2.39203 
174 1 1 5.40045 5.91216 1.6108 
175 1 1 5.58762 4.88573 2.55992 
176 1 1 4.86656 5.70191 2.40644 
177 1 1 6.37642 4.94884 1.60277 
179 1 1 7.13783 4.8883 2.2703 
164 1 1 0.0388571 5.80539 2.44992 
180 1 1 6.40935 5.56964 2.44344 
197 1 1 6.41868 6.33763 1.5904 
178 1 1 7.3778 5.69355 1.68023 
278 1 1 7.04808 5.60569 3.24196 
183 1 1 0.963663 6.38991 2.34649 
185 1 1 1.58294 6.33629 1.51334 
182 1 1 0.722397 7.15049 1.71462 
282 1 1 0.618746 7.27493 3.38612 
188 1 1 1.66802 7.3896 2.51447 
186 1 1 2.3767 7.33961 1.65398 
192 1 1 3.17817 7.40408 2.43899 
286 1 1 2.52917 7.09113 3.14136 
109 1 1 3.01903 0.169353 1.62443 
190 1 1 3.88757 7.44239 1.66537 
209 1 1 3.24219 8.05511 3.25896 
290 1 1 3.94589 7.23703 3.33356 
193 1 1 4.63776 6.57885 1.59821 
195 1 1 5.61757 6.55099 2.52183 
196 1 1 4.83768 7.39116 2.49178 
200 1 1 6.52481 7.11323 2.36805 
294 1 1 5.70566 7.31051 3.30589 
199 1 1 7.15485 6.30155 2.50505 
184 1 1 0.000970028 7.15033 2.45857 
202 1 1 0.645746 0.744158 3.21208 
201 1 1 7.94986 8.03431 3.21772 
208 1 1 1.54857 0.95678 4.00079 
204 1 1 8.05284 0.685721 4.05022 
203 1 1 0.665521 8.06395 4.12403 
212 1 1 3.37129 0.909576 3.992 
227 1 1 2.38471 1.88546 3.84646 
309 1 1 3.17166 0.0943159 5.04336 
211 1 1 4.19752 0.0562182 4.04891 
216 1 1 4.73673 0.929327 4.10384 
231 1 1 4.00425 1.66906 4.03787 
333 1 1 5.18483 1.58866 4.82976 
237 1 1 6.53433 1.48046 3.23589 
214 1 1 5.61375 0.832808 3.41552 
235 1 1 5.70062 1.68305 3.93897 
215 1 1 5.57341 0.039169 4.1536 
220 1 1 6.34276 0.926228 4.24519 
221 1 1 0.0746654 1.57551 3.07203 
218 1 1 7.07762 0.671238 3.31007 
239 1 1 7.48414 1.55163 3.88004 
219 1 1 7.11723 -0.0155182 3.99054 
223 1 1 0.608032 1.59248 4.04987 
225 1 1 1.5125 1.65043 3.138 
222 1 1 0.699523 2.44319 3.16165 
224 1 1 7.98093 2.43197 3.95583 
245 1 1 1.51432 3.21484 3.43144 
228 1 1 1.47412 2.40234 4.03323 
247 1 1 2.41437 3.12425 3.90156 
233 1 1 4.88776 1.67135 3.18432 
229 1 1 3.17299 1.71755 3.24201 
230 1 1 4.01533 2.59655 3.14837 
232 1 1 3.15346 2.53435 3.96489 
236 1 1 4.88125 2.3959 4.00405 
234 1 1 5.74309 2.28146 3.16027 
255 1 1 5.71285 3.19524 4.04588 
238 1 1 7.25202 2.4493 3.23998 
240 1 1 6.52966 2.47701 3.86119 
259 1 1 7.28665 3.18606 4.09661 
357 1 1 6.52179 3.1115 4.8576 
338 1 1 7.36996 2.42613 4.91979 
243 1 1 0.788146 3.30595 4.08042 
244 1 1 0.68651 3.86885 3.16034 
248 1 1 1.66073 4.0361 4.02142 
246 1 1 2.45006 4.03268 3.26781 
252 1 1 3.32591 4.02676 4.06759 
267 1 1 2.5726 4.8447 4.10313 
269 1 1 3.43732 4.69577 3.26182 
251 1 1 3.89662 3.17712 4.03808 
373 1 1 4.85114 4.82616 4.91078 
254 1 1 5.51122 3.9656 3.38138 
273 1 1 4.75554 4.93792 3.25258 
256 1 1 4.78133 3.85045 4.15294 
260 1 1 6.50198 4.01701 4.0035 
358 1 1 0.0495855 4.20618 3.8368 
258 1 1 7.19672 4.09896 3.14556 
341 1 1 8.05039 3.33078 4.95029 
263 1 1 0.811528 4.86082 3.98063 
264 1 1 7.81344 5.60709 4.04418 
268 1 1 1.56451 5.62193 4.06554 
366 1 1 2.43158 5.62961 4.89674 
287 1 1 2.46459 6.49171 3.98134 
271 1 1 4.18458 4.80891 4.08162 
369 1 1 3.25414 4.78921 4.92207 
272 1 1 3.22726 5.57424 4.25936 
291 1 1 4.03585 6.43598 4.27344 
389 1 1 3.21785 6.40561 4.92987 
274 1 1 5.69022 5.57277 3.34813 
293 1 1 4.83653 6.66929 3.18426 
276 1 1 4.86099 5.6176 4.11811 
275 1 1 5.53888 4.91211 4.09255 
279 1 1 7.24129 4.75853 4.04658 
280 1 1 6.58191 5.58114 4.25462 
299 1 1 7.23466 6.45429 4.10969 
378 1 1 7.27332 5.71021 5.06346 
283 1 1 0.847982 6.4724 4.16734 
284 1 1 7.92491 7.37325 4.05116 
382 1 1 0.872371 7.33765 4.84642 
288 1 1 1.76184 7.14958 4.15406 
207 1 1 2.5577 7.99969 4.18252 
385 1 1 1.53303 6.5049 4.8537 
386 1 1 2.48995 7.34381 4.97445 
213 1 1 4.91418 0.0961497 3.16146 
292 1 1 3.25113 7.26443 4.34341 
390 1 1 4.03521 7.25471 4.99052 
217 1 1 6.46919 7.9965 3.21072 
393 1 1 4.89633 6.36632 4.82045 
295 1 1 5.58123 6.43151 3.99368 
296 1 1 4.83206 7.26868 4.11706 
300 1 1 6.35623 7.25651 4.13128 
281 1 1 0.057607 6.36332 3.31524 
297 1 1 6.30657 6.43605 3.21215 
298 1 1 7.31254 7.09914 3.22508 
381 1 1 -0.00725952 6.7008 4.76503 
398 1 1 7.11199 7.13701 4.9192 
302 1 1 0.86587 0.738202 4.75604 
321 1 1 0.0576258 1.76583 4.85717 
325 1 1 1.41268 1.60613 4.81264 
323 1 1 0.677202 1.73009 5.72256 
308 1 1 1.60401 0.926401 5.73031 
301 1 1 7.9065 0.127838 4.80653 
306 1 1 2.42861 0.933013 4.84126 
312 1 1 3.30144 0.80062 5.81624 
329 1 1 3.2274 1.75452 4.71637 
327 1 1 2.2988 1.65568 5.57401 
310 1 1 4.02632 0.798448 4.83587 
410 1 1 4.06696 0.672838 6.48945 
316 1 1 4.8791 0.812474 5.72398 
331 1 1 4.05786 1.52904 5.60978 
433 1 1 4.67652 1.61852 6.44582 
314 1 1 5.71085 0.772854 5.11921 
320 1 1 6.56663 1.04245 5.71089 
414 1 1 5.85124 0.725221 6.46654 
335 1 1 5.72798 1.6081 5.8154 
315 1 1 5.65521 7.97647 5.8486 
417 1 1 6.57906 -0.0080486 6.45438 
337 1 1 6.52545 1.88119 4.65443 
304 1 1 -0.0282543 0.896185 5.64505 
318 1 1 7.24783 1.10962 4.95053 
319 1 1 7.16368 8.07189 5.60291 
317 1 1 6.50738 0.187861 4.85774 
322 1 1 0.680701 2.58481 4.7159 
345 1 1 1.66446 3.26377 4.71128 
328 1 1 1.69267 2.45119 5.65982 
422 1 1 0.884837 2.61611 6.44225 
445 1 1 1.82838 3.13145 6.69136 
326 1 1 2.46013 2.47435 4.95434 
426 1 1 2.52616 2.19877 6.57783 
449 1 1 3.21584 3.11561 6.48139 
332 1 1 3.35142 2.33997 5.61216 
330 1 1 4.16803 2.40273 4.83219 
336 1 1 4.78102 2.33395 5.6261 
353 1 1 4.81805 3.11244 4.9523 
453 1 1 4.78968 3.30352 6.49071 
334 1 1 5.71855 2.52354 4.93952 
434 1 1 5.52995 2.35579 6.48755 
339 1 1 7.44298 1.73951 5.79075 
340 1 1 6.50351 2.40275 5.71766 
324 1 1 0.00632905 2.58414 5.72384 
438 1 1 7.56151 2.40955 6.55792 
342 1 1 0.782407 4.06337 4.67027 
343 1 1 0.86603 3.28544 5.5658 
348 1 1 1.5177 4.02202 5.64467 
346 1 1 2.35142 4.01548 4.93038 
349 1 1 3.31216 3.10027 4.81386 
347 1 1 2.40568 3.18852 5.69387 
352 1 1 3.17167 3.93832 5.63959 
365 1 1 1.62878 4.89404 4.8436 
446 1 1 2.3286 3.94644 6.36402 
350 1 1 4.03665 4.12245 4.83618 
351 1 1 4.09061 3.32236 5.61602 
356 1 1 4.75402 4.10036 5.78153 
473 1 1 4.79009 5.02103 6.58297 
371 1 1 3.95133 4.83296 5.70835 
354 1 1 5.5926 4.16034 4.98268 
355 1 1 5.56106 3.22779 5.70906 
360 1 1 6.37638 3.93719 5.59914 
454 1 1 5.79858 3.95039 6.62181 
344 1 1 0.12309 4.12547 5.84975 
379 1 1 7.25146 4.02587 4.91055 
359 1 1 7.22832 3.24219 5.56403 
441 1 1 7.99756 3.26755 6.43431 
478 1 1 7.29959 4.65283 5.67838 
361 1 1 8.02742 4.82263 4.98505 
363 1 1 0.847235 4.86049 5.65099 
362 1 1 0.610168 5.584 4.73877 
462 1 1 0.965522 5.66984 6.62923 
364 1 1 0.0655896 5.76553 5.60027 
485 1 1 1.6557 6.53153 6.5037 
461 1 1 0.180459 5.03089 6.47616 
367 1 1 2.53294 4.78765 5.65149 
368 1 1 1.41087 5.69069 5.55692 
466 1 1 2.41407 5.74714 6.26533 
465 1 1 1.69341 4.89279 6.39545 
372 1 1 3.21073 5.60699 5.64391 
370 1 1 4.05197 5.61351 4.87865 
391 1 1 3.9413 6.50278 5.92141 
469 1 1 3.17751 4.76122 6.44263 
374 1 1 5.65127 5.53158 4.89331 
377 1 1 6.55017 4.91136 4.97927 
376 1 1 4.77558 5.51461 5.6658 
375 1 1 5.67821 4.7312 5.93904 
380 1 1 6.48422 5.58985 5.73442 
477 1 1 6.54766 4.81114 6.56125 
383 1 1 0.772226 6.57571 5.60272 
303 1 1 0.846712 0.180769 5.71026 
305 1 1 1.65557 0.0463798 4.86072 
307 1 1 2.30616 0.0408303 5.62719 
387 1 1 2.44633 6.48888 5.50933 
388 1 1 1.50125 7.37425 5.76151 
392 1 1 3.18224 7.26106 5.75834 
313 1 1 4.89783 0.0472114 4.90697 
311 1 1 4.11906 8.03213 5.62868 
490 1 1 3.82726 7.3107 6.59799 
394 1 1 5.68082 7.29401 4.98318 
395 1 1 5.66744 6.40413 5.66456 
396 1 1 4.84341 7.00254 5.7281 
494 1 1 5.55009 7.06227 6.45401 
399 1 1 7.23477 6.44349 5.70438 
397 1 1 6.33495 6.42815 4.85143 
384 1 1 -0.0141281 7.26553 5.64836 
400 1 1 6.29271 7.20235 5.76779 
425 1 1 1.59378 1.65171 6.52969 
402 1 1 0.856207 0.880274 6.46608 
423 1 1 0.806285 1.60605 7.20179 
408 1 1 1.718 0.859773 7.31708 
403 1 1 0.915578 0.0782404 7.25178 
6 1 1 2.35903 0.840101 0.0445807 
406 1 1 2.4885 0.9534 6.43834 
412 1 1 3.2355 0.859072 7.44466 
10 1 1 4.03358 0.854639 0.18316 
416 1 1 4.94689 0.665047 7.33755 
431 1 1 4.14951 1.63604 7.32411 
435 1 1 5.50524 1.60417 7.07937 
13 1 1 4.811 0.0445825 -0.00152998 
413 1 1 4.72982 7.78893 6.48439 
17 1 1 6.71062 0.00805999 0.167434 
21 1 1 0.185612 1.68456 8.07913 
421 1 1 0.0222649 1.55579 6.57861 
404 1 1 8.04546 0.746444 7.32588 
18 1 1 7.4357 0.694973 0.151118 
418 1 1 7.32504 0.958367 6.54121 
420 1 1 6.5653 0.668271 7.36635 
45 1 1 1.7307 3.17166 0.0703965 
25 1 1 1.48608 1.57445 8.06673 
428 1 1 1.73946 2.34854 7.40582 
443 1 1 0.812813 3.33313 7.22567 
26 1 1 2.41378 2.44071 0.0705264 
427 1 1 2.52832 1.55627 7.37887 
49 1 1 3.2732 3.05542 -0.0113071 
429 1 1 3.40812 1.51756 6.54136 
432 1 1 3.41382 2.39754 7.29761 
430 1 1 4.06208 2.40646 6.51983 
451 1 1 4.07526 3.22828 7.21809 
53 1 1 4.62374 3.36433 8.09429 
437 1 1 6.5874 1.79036 6.74151 
436 1 1 4.90399 2.48287 7.14504 
440 1 1 6.65879 2.66078 7.20145 
457 1 1 6.55755 3.19286 6.35968 
439 1 1 7.29338 1.43827 7.39565 
424 1 1 0.155188 2.47163 7.26457 
442 1 1 0.925635 3.91179 6.4104 
448 1 1 1.82015 4.04522 7.29771 
65 1 1 1.72092 4.79754 -0.00798235 
447 1 1 2.5877 3.0284 7.3325 
467 1 1 2.41461 4.82545 7.21129 
452 1 1 3.21424 3.90743 7.20685 
450 1 1 3.91543 3.95532 6.43014 
456 1 1 4.88284 3.95924 7.26937 
471 1 1 3.84179 4.85902 7.27627 
73 1 1 4.72031 4.71459 8.01754 
455 1 1 5.79044 3.06135 7.25523 
460 1 1 6.51189 3.94114 7.33147 
58 1 1 7.35686 4.11588 8.02024 
458 1 1 7.23605 4.02128 6.46595 
444 1 1 0.0348603 3.99149 7.19739 
459 1 1 7.44031 3.29176 7.37314 
61 1 1 0.0285173 4.86916 0.0348434 
463 1 1 0.954383 4.83307 7.23271 
62 1 1 0.861419 5.57153 0.0691925 
464 1 1 8.07452 5.73444 7.40276 
468 1 1 1.70559 5.55178 7.34332 
472 1 1 2.98768 5.70502 7.30065 
487 1 1 2.40499 6.59719 7.34509 
470 1 1 3.88079 5.69592 6.60292 
491 1 1 3.95203 6.55378 7.34107 
493 1 1 4.77642 6.47477 6.6559 
74 1 1 5.72424 5.57214 7.95155 
474 1 1 5.69469 5.63513 6.32544 
476 1 1 4.67782 5.70796 7.33746 
475 1 1 5.7247 4.7984 7.28488 
79 1 1 7.32616 5.58524 8.07183 
479 1 1 7.40356 4.85158 7.31594 
499 1 1 7.37541 5.60065 6.57783 
480 1 1 6.47889 5.73395 7.1804 
405 1 1 1.64191 0.112829 6.55056 
482 1 1 0.678862 7.28218 6.44138 
5 1 1 1.60463 8.05384 0.0451986 
483 1 1 0.741483 6.49524 7.20427 
409 1 1 3.14835 7.99949 6.68405 
486 1 1 2.34891 7.2629 6.5514 
407 1 1 2.4911 -0.000742951 7.33931 
489 1 1 3.12201 6.42479 6.54023 
86 1 1 2.33532 7.28901 0.166028 
85 1 1 1.51102 6.36784 8.08668 
488 1 1 1.41483 7.31776 7.37517 
411 1 1 4.04078 8.0496 7.36399 
492 1 1 3.16108 7.22023 7.37477 
496 1 1 4.78418 7.2723 7.49429 
495 1 1 5.75473 6.44615 7.32051 
415 1 1 5.72708 7.89232 7.02004 
98 1 1 7.27804 7.21281 0.0236987 
481 1 1 8.03798 6.51893 6.40286 
497 1 1 6.48969 6.46931 6.43663 
401 1 1 0.0619178 0.102962 6.41653 
97 1 1 6.57924 6.32783 -0.00344925 
78 1 1 7.18968 6.52274 7.31006 
484 1 1 0.0669032 7.32435 7.26436 
498 1 1 7.41836 7.40459 6.54976 
500 1 1 6.56579 7.29081 7.21613 
419 1 1 7.34407 0.0168828 7.3913 
