ITEM: TIMESTEP
44000
ITEM: NUMBER OF ATOMS
500
ITEM: BOX BOUNDS pp pp pp
0 8.07388
0 8.07388
0 8.07388
ITEM: ATOMS id type mass x y z 
2 1 1 0.821587 0.714117 0.000773914 
1 1 1 0.0847788 7.99392 0.0991487 
4 1 1 8.1067 0.756799 0.927104 
3 1 1 0.913789 8.0069 0.87477 
101 1 1 0.0414009 7.94755 1.52387 
21 1 1 0.0539745 1.39808 0.157032 
8 1 1 1.58452 0.70349 0.921489 
7 1 1 2.40758 0.0629518 0.838107 
106 1 1 2.38133 0.884908 1.69725 
12 1 1 3.31374 0.798735 0.697827 
5 1 1 1.63528 7.98665 -0.0062144 
110 1 1 3.87858 0.773389 1.63232 
10 1 1 4.12766 0.965235 0.106358 
33 1 1 4.98929 1.38079 8.06918 
16 1 1 4.76424 0.968326 0.91893 
20 1 1 6.45234 0.934894 0.938011 
14 1 1 5.80443 0.809786 7.88152 
35 1 1 5.65253 1.58571 0.663393 
13 1 1 4.96747 0.115005 0.111272 
18 1 1 7.32347 0.66134 0.0796552 
39 1 1 7.36539 1.58525 0.860273 
118 1 1 7.39304 0.870267 1.61838 
23 1 1 0.884162 1.42435 0.94211 
24 1 1 8.02882 2.3649 0.92076 
43 1 1 0.639041 3.16682 0.937718 
125 1 1 1.55855 1.76568 1.70596 
27 1 1 2.22494 1.68232 0.915197 
28 1 1 1.50971 2.51473 0.881807 
32 1 1 3.2146 2.35441 0.885687 
49 1 1 3.16034 3.3026 0.051609 
31 1 1 3.95408 1.63121 0.921659 
36 1 1 5.00847 2.45154 0.714642 
51 1 1 3.93261 3.10599 0.91282 
133 1 1 4.79028 1.7427 1.61356 
40 1 1 6.43264 2.28791 0.86407 
134 1 1 5.68818 2.403 1.63191 
34 1 1 5.72228 2.36565 7.95635 
137 1 1 6.46532 1.67962 1.65182 
138 1 1 7.24287 2.37994 1.6662 
48 1 1 1.65136 3.98208 0.995217 
63 1 1 0.884889 4.87867 0.768451 
44 1 1 7.98656 3.91857 0.72808 
142 1 1 0.743456 4.08895 1.57604 
47 1 1 2.42177 3.30585 0.87842 
52 1 1 3.17278 4.05525 1.06261 
150 1 1 4.08109 4.24484 1.46497 
56 1 1 4.85064 4.03935 0.899091 
55 1 1 5.5874 3.29328 0.931088 
75 1 1 5.71261 4.75385 0.903487 
59 1 1 7.3039 3.17269 0.809483 
157 1 1 6.45736 3.29189 1.678 
60 1 1 6.47655 3.97985 0.925515 
158 1 1 7.42316 3.86615 1.69363 
41 1 1 7.99205 3.26636 7.93389 
58 1 1 7.09792 3.85727 0.00623747 
68 1 1 1.79262 5.59652 0.877758 
64 1 1 7.96413 5.56623 0.897301 
81 1 1 7.99825 6.45957 7.96446 
162 1 1 0.740273 5.56982 1.71983 
67 1 1 2.5438 4.83755 0.729675 
72 1 1 3.26179 5.53677 0.740007 
189 1 1 3.21808 6.47364 1.49616 
169 1 1 3.3127 4.96838 1.56546 
166 1 1 2.46167 5.42241 1.56704 
71 1 1 4.07117 4.83629 0.692853 
91 1 1 3.92447 6.46502 0.770301 
173 1 1 4.95876 4.88604 1.56724 
70 1 1 4.09465 5.6195 8.07683 
76 1 1 4.91352 5.72204 0.765661 
193 1 1 4.92738 6.35714 1.5833 
74 1 1 5.70984 5.65271 -0.0203374 
95 1 1 5.53815 6.57156 0.755523 
93 1 1 4.79926 6.48167 8.04137 
161 1 1 7.21853 4.63343 0.91968 
80 1 1 6.55585 5.54952 0.798797 
99 1 1 7.20655 6.36078 1.0805 
178 1 1 7.10534 5.47446 1.65145 
181 1 1 8.04416 6.32226 1.59989 
83 1 1 0.714209 6.29182 0.835464 
85 1 1 1.66439 6.46575 0.0295945 
182 1 1 0.815459 7.14147 1.4424 
82 1 1 0.851857 7.07751 7.90029 
87 1 1 2.62963 6.44662 0.703937 
88 1 1 1.66567 7.18471 0.830497 
86 1 1 2.47764 7.18121 0.0366461 
92 1 1 3.11625 7.43197 0.861182 
186 1 1 2.39717 7.22142 1.5649 
11 1 1 4.00063 8.06572 0.858328 
109 1 1 3.18059 8.01617 1.74525 
190 1 1 3.96821 7.29728 1.57365 
90 1 1 3.8081 7.3347 0.17663 
15 1 1 5.70878 0.147472 0.823218 
17 1 1 6.46446 0.00120324 7.90368 
96 1 1 4.78877 7.4131 0.817414 
194 1 1 5.70679 7.34411 1.5426 
94 1 1 5.57355 7.30234 -0.0287639 
84 1 1 7.96363 7.17996 0.711973 
100 1 1 6.41082 7.21425 0.736259 
19 1 1 7.17193 0.0180319 0.871568 
117 1 1 6.3583 0.154824 1.56032 
98 1 1 7.17103 7.23934 0.0518899 
102 1 1 0.881945 0.745908 1.71019 
202 1 1 0.951686 0.890971 3.18368 
104 1 1 0.126222 0.881084 2.50389 
103 1 1 0.846972 0.075321 2.54626 
108 1 1 1.68611 0.835633 2.53916 
225 1 1 1.65766 1.65782 3.33905 
206 1 1 2.58468 0.801115 3.22303 
112 1 1 3.21783 0.795119 2.38242 
116 1 1 4.81647 0.867556 2.43113 
131 1 1 3.89765 1.58849 2.4525 
209 1 1 3.36743 8.05709 3.08273 
114 1 1 5.49068 0.95871 1.61707 
120 1 1 6.54036 0.907993 2.35138 
214 1 1 5.5798 0.96101 3.31093 
139 1 1 7.33805 1.51194 2.46841 
119 1 1 7.31333 0.332888 2.52103 
121 1 1 0.100225 1.55578 1.74633 
122 1 1 0.756296 2.42319 1.66227 
123 1 1 0.930137 1.6381 2.49113 
222 1 1 0.738095 2.4321 3.3155 
126 1 1 2.33815 2.48989 1.60404 
128 1 1 1.60525 2.46206 2.47746 
127 1 1 2.46328 1.72625 2.39253 
229 1 1 3.18301 1.70901 3.18258 
147 1 1 2.25096 3.34823 2.55174 
130 1 1 4.01322 2.40429 1.83224 
129 1 1 3.1058 1.56626 1.47222 
132 1 1 3.16828 2.54035 2.44424 
136 1 1 4.80489 2.28791 2.53555 
135 1 1 5.69511 1.56551 2.48045 
155 1 1 5.38733 3.25124 2.43078 
234 1 1 5.54334 2.59004 3.22178 
124 1 1 0.126885 2.27928 2.53944 
140 1 1 6.44056 2.56957 2.48806 
141 1 1 8.05468 3.09118 1.87803 
238 1 1 7.31303 2.39795 3.24736 
159 1 1 7.31899 3.16344 2.61234 
143 1 1 0.769621 3.42668 2.48379 
144 1 1 7.96949 4.06772 2.60821 
148 1 1 1.48974 4.12024 2.51869 
149 1 1 3.03685 3.20439 1.73238 
165 1 1 1.64381 4.80909 1.65976 
146 1 1 2.43451 4.03091 1.71439 
145 1 1 1.44093 3.26356 1.67859 
151 1 1 3.89576 3.32079 2.45886 
152 1 1 3.29941 4.19393 2.17882 
156 1 1 4.74531 4.04941 2.32503 
171 1 1 3.9916 5.00375 2.40301 
153 1 1 4.82949 3.12265 1.58451 
154 1 1 5.62893 3.98499 1.74524 
177 1 1 6.50498 4.66336 1.62975 
175 1 1 5.74546 4.91716 2.24336 
254 1 1 5.58764 4.0254 3.16733 
160 1 1 6.70751 4.11927 2.54217 
163 1 1 8.0815 4.86175 1.69633 
242 1 1 0.829811 4.92478 2.5596 
164 1 1 8.02311 5.63623 2.47922 
261 1 1 7.8682 4.93315 3.3438 
167 1 1 2.26486 4.87069 2.4665 
168 1 1 1.54932 5.68649 2.33996 
172 1 1 3.22381 5.64865 2.3138 
187 1 1 2.43833 6.37743 2.27898 
289 1 1 3.17346 6.29262 3.09319 
170 1 1 4.06601 5.59496 1.49096 
191 1 1 3.99354 6.36677 2.23085 
176 1 1 4.82007 5.68025 2.35668 
269 1 1 3.19731 4.99646 3.19588 
270 1 1 4.03297 5.76717 3.20835 
174 1 1 5.90167 5.60254 1.56244 
197 1 1 6.47401 6.62828 1.87536 
179 1 1 7.2718 4.93764 2.5022 
180 1 1 6.4782 5.78444 2.37664 
278 1 1 7.1455 5.77422 3.14147 
277 1 1 6.26313 4.81908 3.25002 
105 1 1 1.6908 8.10863 1.80013 
185 1 1 1.82771 6.36779 1.53782 
183 1 1 1.0279 6.47204 2.33069 
184 1 1 0.107519 7.31679 2.36005 
188 1 1 1.66276 7.24917 2.41662 
107 1 1 2.50005 0.0969154 2.48179 
285 1 1 1.49119 6.35821 3.31108 
286 1 1 2.44528 7.16394 3.26132 
111 1 1 4.1962 8.00828 2.32635 
192 1 1 3.18182 7.16084 2.40584 
290 1 1 4.13732 7.34547 3.0797 
213 1 1 4.89156 0.0942802 3.26091 
113 1 1 4.83139 0.177159 1.57596 
195 1 1 5.59701 6.45512 2.38612 
196 1 1 4.81388 7.22013 2.25343 
115 1 1 5.58529 0.161292 2.33579 
293 1 1 4.75766 6.52704 3.01793 
294 1 1 5.55604 7.4847 3.10954 
297 1 1 6.44493 6.65023 3.04219 
199 1 1 7.40865 6.63855 2.37143 
200 1 1 6.76398 7.57341 2.45051 
217 1 1 6.45794 0.265635 3.1865 
198 1 1 7.23452 7.3173 1.45818 
204 1 1 0.16388 0.685249 4.04763 
203 1 1 0.904686 0.0204554 3.92035 
223 1 1 0.809373 1.62739 4.1115 
302 1 1 0.899102 0.783328 4.79111 
208 1 1 1.85947 0.652833 3.97982 
212 1 1 3.29093 0.73722 4.02372 
309 1 1 3.27631 8.00878 4.74003 
207 1 1 2.57048 7.97647 3.86829 
210 1 1 3.98989 0.770353 3.24486 
231 1 1 4.0019 1.65015 4.12243 
216 1 1 4.76014 0.857714 3.99195 
235 1 1 5.63974 1.87535 3.98556 
220 1 1 6.49202 0.82001 4.15684 
337 1 1 6.50599 1.74047 4.84225 
218 1 1 7.30241 0.848064 3.38683 
237 1 1 6.42676 1.7579 3.21812 
219 1 1 7.16586 0.0960501 4.02128 
224 1 1 7.914 2.5524 4.13828 
228 1 1 1.66393 2.31359 4.21586 
226 1 1 2.42056 2.37391 3.35491 
245 1 1 1.47726 3.09385 3.29043 
227 1 1 2.5439 1.53044 4.08623 
232 1 1 3.05939 2.31949 4.18328 
345 1 1 1.65411 3.08778 4.88131 
230 1 1 3.93896 2.46386 3.27532 
253 1 1 4.72061 3.25341 3.26909 
233 1 1 4.63588 1.67557 3.31199 
249 1 1 3.10722 3.10467 3.24902 
251 1 1 3.84712 3.2291 3.97799 
349 1 1 3.22776 3.18932 4.94727 
236 1 1 4.68966 2.47091 4.06462 
240 1 1 6.65952 2.33305 4.04058 
334 1 1 5.46631 2.56527 4.78623 
221 1 1 0.0746215 1.5559 3.30559 
239 1 1 7.41311 1.57295 4.06841 
241 1 1 0.0155164 3.25201 3.28712 
257 1 1 6.46199 3.28329 3.22702 
259 1 1 7.13648 3.25258 4.1635 
244 1 1 0.748424 4.03697 3.35385 
243 1 1 0.724996 3.20621 4.18212 
358 1 1 8.06023 4.22397 4.13937 
246 1 1 2.47744 4.07088 3.12559 
248 1 1 1.81067 3.96274 4.05298 
247 1 1 2.47132 3.14751 4.16533 
252 1 1 3.1375 4.08515 4.00407 
346 1 1 2.40892 3.91702 4.98339 
250 1 1 3.98659 4.06847 3.20112 
273 1 1 4.70867 4.80179 3.15095 
271 1 1 4.02544 5.0033 4.00328 
373 1 1 4.86252 4.97387 4.8466 
255 1 1 5.57178 3.29375 4.04644 
256 1 1 4.74586 4.09435 4.06496 
275 1 1 5.46702 4.82665 4.06695 
354 1 1 5.36486 3.94514 4.94523 
260 1 1 6.30777 4.05305 4.07119 
258 1 1 7.17858 4.10647 3.46406 
262 1 1 0.715086 5.62048 3.37147 
263 1 1 0.798268 4.86981 4.07399 
264 1 1 7.92119 5.75644 4.12294 
362 1 1 0.833095 5.73931 5.0193 
266 1 1 2.30474 5.71805 3.18651 
267 1 1 2.40814 5.03534 3.99354 
268 1 1 1.58233 5.65357 4.35309 
265 1 1 1.69199 4.87638 3.30321 
287 1 1 2.34265 6.25507 4.0375 
369 1 1 3.21556 4.86601 4.77446 
272 1 1 3.25456 5.78375 4.03974 
276 1 1 5.00946 5.83271 3.94352 
370 1 1 4.07851 5.7387 4.8291 
274 1 1 5.63097 5.64825 3.06173 
295 1 1 5.76794 6.5092 3.83868 
361 1 1 7.99293 4.97679 4.77991 
280 1 1 6.26918 5.62496 3.92491 
279 1 1 7.09999 4.74635 4.26623 
299 1 1 7.17307 6.51313 3.85598 
377 1 1 6.26318 4.49146 5.03094 
281 1 1 0.0990999 6.4324 3.15637 
282 1 1 0.91473 7.32115 3.16644 
283 1 1 0.714923 6.48637 4.128 
382 1 1 0.871908 7.15936 4.79716 
205 1 1 1.78552 0.0373428 3.20378 
305 1 1 1.53003 8.08681 4.71688 
288 1 1 1.58454 7.13212 3.98042 
389 1 1 3.21434 6.4484 4.97878 
291 1 1 4.00883 6.52584 4.05763 
211 1 1 3.98325 7.92342 4.02369 
292 1 1 3.19061 7.05018 4.05611 
296 1 1 4.87595 7.35891 3.90208 
215 1 1 5.79504 0.0749076 3.88403 
201 1 1 0.0423474 0.0552265 3.18086 
298 1 1 7.4113 7.42148 3.16233 
284 1 1 0.201011 7.40577 3.95542 
300 1 1 6.37367 7.35551 3.86937 
301 1 1 0.16186 -0.0241718 4.91387 
308 1 1 1.65853 0.758026 5.56659 
304 1 1 8.0402 0.766236 5.71502 
323 1 1 0.881888 1.51013 5.55723 
321 1 1 0.113337 1.47786 4.78335 
306 1 1 2.43073 0.619342 4.91591 
312 1 1 3.2604 0.799512 5.6724 
307 1 1 2.55595 0.0408053 5.80658 
327 1 1 2.41212 1.53912 5.76401 
310 1 1 3.99974 0.69981 4.91651 
316 1 1 4.79773 0.812738 5.60439 
410 1 1 4.01006 0.86638 6.53117 
311 1 1 4.06011 0.0972828 5.68102 
333 1 1 4.86881 1.52959 4.82175 
314 1 1 5.64254 0.681148 4.89027 
320 1 1 6.41027 0.853379 5.62113 
335 1 1 5.65793 1.57323 5.53946 
313 1 1 4.79287 0.0410918 4.76867 
315 1 1 5.53382 8.06477 5.63319 
318 1 1 7.34322 0.872643 4.86271 
319 1 1 7.36715 8.04589 5.52004 
339 1 1 7.24998 1.5646 5.66652 
322 1 1 0.912975 2.40279 5.00289 
328 1 1 1.61331 2.4058 5.75244 
325 1 1 1.69329 1.51514 4.87017 
329 1 1 3.21153 1.58025 4.92404 
326 1 1 2.41219 2.33561 5.05232 
426 1 1 2.37681 2.42051 6.66913 
331 1 1 4.03007 1.67369 5.6114 
332 1 1 3.31041 2.31729 5.7157 
330 1 1 3.94039 2.42781 4.80427 
353 1 1 4.65753 3.15179 4.89853 
351 1 1 3.97816 3.1725 5.65085 
336 1 1 4.79265 2.4198 5.59949 
340 1 1 6.41486 2.32448 5.62567 
357 1 1 6.34226 3.14957 4.69886 
338 1 1 7.42605 2.34304 4.89431 
324 1 1 0.0319612 2.27635 5.77812 
359 1 1 7.19047 2.98763 5.69551 
342 1 1 0.846669 4.03635 4.70031 
343 1 1 0.897816 3.24958 5.73729 
348 1 1 1.72564 3.92804 5.78611 
442 1 1 0.729631 4.14975 6.54977 
344 1 1 0.141356 4.04135 5.63832 
347 1 1 2.43923 3.16141 5.74122 
365 1 1 1.64807 4.68475 4.87918 
352 1 1 3.23689 3.98627 5.72433 
367 1 1 2.50024 4.73349 5.73878 
449 1 1 3.28781 3.26764 6.49599 
350 1 1 3.89362 4.02277 4.71714 
356 1 1 4.73832 4.12345 5.66091 
453 1 1 4.90191 3.16898 6.4454 
450 1 1 4.21615 3.95965 6.49933 
355 1 1 5.7468 3.23172 5.6023 
454 1 1 5.72193 4.05014 6.31768 
375 1 1 5.52149 4.86781 5.78844 
473 1 1 4.85934 4.74273 6.50634 
341 1 1 0.120365 3.05018 5.10684 
379 1 1 7.33132 3.87878 5.08648 
360 1 1 6.48106 3.83435 5.77151 
478 1 1 7.09373 4.89344 5.37543 
465 1 1 1.65785 4.86881 6.41039 
363 1 1 0.804006 4.7973 5.59036 
364 1 1 8.08714 5.82278 5.71295 
366 1 1 2.42801 5.67099 4.90557 
368 1 1 1.71565 5.56456 5.62644 
372 1 1 3.15831 5.61373 5.68818 
371 1 1 3.96256 4.88177 5.622 
391 1 1 4.11611 6.46562 5.58685 
376 1 1 4.87557 5.70828 5.66947 
374 1 1 5.84958 5.55959 4.9034 
380 1 1 6.43798 5.68224 5.79065 
477 1 1 6.42458 4.82671 6.40727 
378 1 1 7.14939 5.67768 4.60486 
499 1 1 7.25029 5.84224 6.48152 
381 1 1 7.94732 6.50573 4.87185 
303 1 1 0.796327 8.053 5.74394 
383 1 1 1.10966 6.50726 5.72312 
482 1 1 0.799011 7.11487 6.45686 
401 1 1 0.114826 0.0035717 6.48765 
485 1 1 1.74695 6.4797 6.56563 
385 1 1 1.78178 6.56455 5.00003 
405 1 1 1.72789 8.00629 6.46521 
388 1 1 1.63092 7.42542 5.70403 
386 1 1 2.35891 7.36631 4.9157 
387 1 1 2.46263 6.57092 5.76514 
392 1 1 3.22907 7.30738 5.70116 
486 1 1 2.45264 7.29392 6.47097 
393 1 1 5.15729 6.46289 4.79827 
390 1 1 3.94759 7.14221 4.8835 
490 1 1 4.06866 7.38573 6.49551 
394 1 1 5.66829 7.51202 4.78297 
395 1 1 5.68131 6.49564 5.66078 
396 1 1 4.72446 7.37489 5.60082 
494 1 1 5.47666 7.37521 6.46121 
400 1 1 6.4135 7.4649 5.65443 
317 1 1 6.57986 0.0822015 4.89307 
398 1 1 7.11223 7.18662 4.70201 
397 1 1 6.39406 6.38403 4.85027 
384 1 1 8.04756 7.19787 5.68169 
399 1 1 7.03093 6.59045 5.71477 
402 1 1 0.84516 0.918523 6.47077 
425 1 1 1.70297 1.5565 6.58436 
404 1 1 8.01006 0.926403 7.22939 
423 1 1 0.913516 1.54515 7.46059 
406 1 1 2.60091 0.836719 6.45682 
408 1 1 1.47518 0.682517 7.26624 
6 1 1 2.42223 0.934174 0.164648 
427 1 1 2.36583 1.70358 7.51633 
409 1 1 3.33487 0.0895669 6.68005 
412 1 1 3.15453 0.889143 7.35101 
416 1 1 4.87122 0.875724 7.22225 
414 1 1 5.51089 0.910191 6.40092 
435 1 1 5.52146 1.68767 7.23884 
415 1 1 5.53804 8.08309 7.26632 
420 1 1 6.76311 0.829964 7.19919 
417 1 1 6.17654 0.084788 6.47027 
421 1 1 0.140676 1.60547 6.44701 
418 1 1 7.46119 0.821617 6.48689 
422 1 1 0.917807 2.36671 6.498 
22 1 1 0.652938 2.33028 0.0760371 
443 1 1 0.675416 3.34323 7.27658 
428 1 1 1.57591 2.37538 7.38812 
445 1 1 1.63975 3.10879 6.50579 
25 1 1 1.56796 1.68536 0.0992989 
26 1 1 2.37161 2.65874 0.0632409 
45 1 1 1.57401 3.34754 0.133456 
429 1 1 3.21369 1.63273 6.60594 
432 1 1 3.17798 2.42984 7.45843 
430 1 1 4.0081 2.37073 6.55342 
29 1 1 3.17798 1.71812 0.0775027 
431 1 1 4.03497 1.63919 7.19986 
30 1 1 3.98298 2.32623 0.0877488 
451 1 1 4.03967 3.19505 7.17007 
433 1 1 4.82095 1.60515 6.26334 
434 1 1 5.64772 2.40775 6.34727 
437 1 1 6.29824 1.59901 6.57223 
436 1 1 4.84383 2.46445 7.16619 
440 1 1 6.48686 2.28111 7.36171 
438 1 1 7.16008 2.11972 6.46981 
37 1 1 6.5712 1.48134 0.0649004 
439 1 1 7.33224 1.62376 7.35721 
424 1 1 8.00285 2.38525 7.22907 
38 1 1 7.29651 2.42413 0.0781663 
441 1 1 8.05719 3.1712 6.41093 
459 1 1 7.2492 3.10078 7.11637 
42 1 1 0.852441 4.05847 0.032444 
65 1 1 1.57697 4.95305 0.0337232 
61 1 1 7.74584 4.96003 7.99714 
448 1 1 1.64424 3.9449 7.22129 
46 1 1 2.39409 4.07978 0.115407 
446 1 1 2.43036 4.05856 6.53527 
447 1 1 2.48788 3.4197 7.355 
467 1 1 2.53644 4.77319 7.41282 
53 1 1 4.69224 3.18029 0.0724004 
452 1 1 3.31684 4.07266 7.22759 
50 1 1 4.04653 3.84903 0.12932 
456 1 1 4.95484 4.00593 7.31899 
57 1 1 6.39244 3.08931 0.283438 
457 1 1 6.45229 3.01286 6.51788 
455 1 1 5.62391 3.21433 7.40696 
54 1 1 5.68356 3.94099 0.0866448 
460 1 1 6.43592 4.0251 7.17447 
77 1 1 6.57764 4.67158 0.0930034 
444 1 1 0.0156129 4.18785 7.44008 
458 1 1 7.43644 3.98834 6.29355 
479 1 1 7.24279 4.64438 7.19553 
461 1 1 7.96833 4.95045 6.33431 
462 1 1 0.923407 5.71339 6.40408 
463 1 1 0.914252 4.80025 7.21105 
62 1 1 0.685027 5.52326 7.94032 
468 1 1 1.71907 5.67439 7.27664 
481 1 1 8.03073 6.51828 6.56087 
69 1 1 3.3056 4.78377 8.01534 
66 1 1 2.54775 5.65976 7.98616 
89 1 1 3.38631 6.40353 7.98876 
466 1 1 2.46234 5.53097 6.40304 
472 1 1 3.36028 5.66486 7.22033 
470 1 1 4.13551 5.54236 6.37843 
73 1 1 4.80239 4.83151 8.01527 
469 1 1 3.23519 4.7772 6.54706 
471 1 1 4.06588 4.79374 7.25962 
491 1 1 4.06849 6.37215 7.24738 
489 1 1 3.39297 6.43423 6.38427 
476 1 1 4.83017 5.48755 7.19644 
474 1 1 5.70379 5.56308 6.60199 
475 1 1 5.72672 4.8559 7.4429 
480 1 1 6.60496 5.5301 7.36446 
495 1 1 5.61188 6.39915 7.32215 
97 1 1 6.39436 6.52673 7.90327 
464 1 1 7.95304 5.63079 7.21179 
79 1 1 7.15077 5.84811 -0.00109395 
403 1 1 0.788923 7.95224 7.36273 
483 1 1 0.821743 6.28825 7.32003 
484 1 1 8.0452 7.20487 7.26218 
488 1 1 1.5758 7.33617 7.20484 
9 1 1 3.23241 0.0709339 7.99661 
407 1 1 2.4699 7.93454 7.20021 
487 1 1 2.6772 6.48352 7.10014 
493 1 1 4.92284 6.47051 6.42425 
413 1 1 4.80669 0.074233 6.45892 
411 1 1 4.13468 0.0568245 7.39806 
492 1 1 3.38375 7.23147 7.30755 
496 1 1 4.65513 7.19819 7.29589 
500 1 1 6.57692 7.40017 7.16692 
419 1 1 7.36016 8.04485 7.3181 
497 1 1 6.46621 6.61203 6.5665 
498 1 1 7.25062 7.37332 6.31038 
78 1 1 7.25988 6.46525 7.28005 
