ITEM: TIMESTEP
47000
ITEM: NUMBER OF ATOMS
500
ITEM: BOX BOUNDS pp pp pp
0 8.07388
0 8.07388
0 8.07388
ITEM: ATOMS id type mass x y z 
2 1 1 0.732822 0.947662 7.9925 
8 1 1 1.66727 1.02062 0.757729 
4 1 1 7.99887 0.736803 0.613094 
5 1 1 1.51023 0.314136 0.102867 
6 1 1 2.31429 1.01641 7.99826 
12 1 1 3.15867 0.901982 0.630463 
10 1 1 4.09683 0.851497 0.0232896 
31 1 1 4.0654 1.62415 0.830172 
16 1 1 4.88865 0.743168 0.852169 
113 1 1 5.02651 0.099604 1.59345 
114 1 1 5.96835 0.721535 1.68991 
14 1 1 5.72192 0.748929 8.07387 
33 1 1 5.01893 1.61319 0.028899 
15 1 1 5.78327 7.97838 0.861736 
20 1 1 6.44377 0.761904 0.759875 
118 1 1 7.27578 0.995806 1.72801 
19 1 1 7.08404 7.90766 0.805756 
23 1 1 0.825265 1.67846 0.760875 
22 1 1 0.804421 2.37089 8.02965 
24 1 1 8.01654 2.46659 0.792813 
122 1 1 0.654036 2.4399 1.70491 
121 1 1 0.0418844 1.66638 1.80894 
25 1 1 1.51055 1.66697 8.02916 
28 1 1 1.60759 2.40732 0.83389 
27 1 1 2.38222 1.6746 0.856214 
32 1 1 3.20924 2.32854 0.784931 
26 1 1 2.49298 2.49435 0.0474098 
47 1 1 2.37398 3.1844 0.771899 
145 1 1 1.50486 3.26919 1.50071 
30 1 1 4.04916 2.42315 0.127479 
51 1 1 4.05564 3.22269 0.903919 
130 1 1 3.98309 2.51123 1.62507 
29 1 1 3.11513 1.63978 8.02709 
35 1 1 5.75369 1.65196 0.793133 
36 1 1 4.95873 2.56915 0.896908 
134 1 1 5.73233 2.43493 1.749 
40 1 1 6.63911 2.3608 0.949173 
37 1 1 6.44882 1.67035 0.000466033 
39 1 1 7.2782 1.57079 0.781251 
38 1 1 7.2104 2.46883 0.0677513 
43 1 1 0.58813 3.31572 0.84021 
44 1 1 7.95446 4.28719 0.950715 
63 1 1 0.999496 4.96286 0.802197 
142 1 1 0.828613 4.09876 1.59979 
42 1 1 0.775089 4.02876 8.03669 
48 1 1 1.59001 3.99701 0.691684 
52 1 1 3.2756 4.03635 0.923596 
69 1 1 3.21187 4.87514 8.02304 
169 1 1 3.24083 4.80287 1.68342 
50 1 1 4.14426 3.83383 0.0390324 
56 1 1 5.02289 4.02789 0.728689 
173 1 1 4.91001 4.70746 1.59768 
71 1 1 3.87122 4.81807 0.802301 
53 1 1 4.92639 3.11216 0.0407699 
55 1 1 5.8619 3.07196 0.817067 
73 1 1 4.86215 4.78956 7.97703 
57 1 1 6.38865 3.27022 8.05789 
157 1 1 6.53774 3.25981 1.61451 
59 1 1 7.22964 3.46875 0.785645 
60 1 1 6.42471 4.122 0.86699 
58 1 1 7.08703 4.20214 0.0768488 
64 1 1 7.9801 5.79351 0.877618 
61 1 1 0.0215467 4.84236 0.0276768 
68 1 1 1.61198 5.78176 0.869011 
162 1 1 0.821121 5.77725 1.68007 
62 1 1 0.682096 5.62209 8.05428 
67 1 1 2.63948 4.78082 0.712106 
72 1 1 3.13047 5.71238 0.729471 
66 1 1 2.40418 5.59923 7.94023 
89 1 1 3.34647 6.45043 8.05604 
166 1 1 2.49557 5.51206 1.60178 
91 1 1 4.06335 6.45569 0.74086 
193 1 1 4.66759 6.50876 1.58621 
170 1 1 3.98418 5.64126 1.66978 
189 1 1 3.22597 6.50416 1.41373 
70 1 1 4.06578 5.69378 7.95563 
75 1 1 5.61242 4.95182 0.75234 
76 1 1 4.73373 5.51384 0.722919 
174 1 1 5.58484 5.62997 1.52252 
95 1 1 5.43402 6.43274 0.886569 
161 1 1 7.1119 4.93533 0.978014 
163 1 1 0.100116 5.09775 1.54205 
80 1 1 6.52033 5.72765 0.91102 
178 1 1 7.3135 5.73588 1.65717 
3 1 1 0.655487 7.98178 0.661539 
83 1 1 0.742053 6.44043 0.687365 
84 1 1 8.01489 7.2934 0.628251 
185 1 1 1.55607 6.60949 1.54598 
7 1 1 2.3731 0.224112 0.757032 
87 1 1 2.4003 6.45367 0.734517 
88 1 1 1.47731 7.39729 0.770817 
92 1 1 3.15358 7.30307 0.62869 
86 1 1 2.29156 7.46882 0.19591 
11 1 1 3.9336 0.138028 0.778705 
90 1 1 4.04956 7.24778 0.185545 
96 1 1 4.91154 7.45956 0.91693 
13 1 1 4.85655 0.0149955 0.0866969 
94 1 1 5.57927 7.2402 0.165605 
100 1 1 6.3478 7.14279 0.923258 
197 1 1 6.36594 6.39277 1.68099 
117 1 1 6.59707 7.85302 1.66195 
99 1 1 7.20311 6.5024 0.781312 
101 1 1 7.91876 0.112935 1.61189 
181 1 1 0.0858946 6.42867 1.65704 
198 1 1 7.60195 7.25891 1.51741 
17 1 1 6.41462 7.9507 7.90917 
102 1 1 0.682288 0.917612 1.64224 
123 1 1 0.841086 1.56045 2.34537 
103 1 1 0.791881 0.0159616 2.5224 
129 1 1 3.27287 1.62389 1.58054 
106 1 1 2.38361 0.869202 1.59735 
108 1 1 1.54182 0.83883 2.30326 
112 1 1 3.25287 0.908396 2.28612 
125 1 1 1.52624 1.66787 1.65984 
110 1 1 4.07541 0.829776 1.5847 
111 1 1 3.93271 0.0748422 2.38135 
233 1 1 4.74831 1.55113 3.11661 
116 1 1 4.83993 0.807154 2.47379 
135 1 1 5.66396 1.56778 2.5714 
217 1 1 6.33801 7.9662 3.36289 
104 1 1 0.0522426 0.747419 2.60706 
120 1 1 6.55315 0.685768 2.68935 
221 1 1 0.108688 1.56564 3.20419 
128 1 1 1.51682 2.42433 2.42716 
124 1 1 8.06194 2.44534 2.62379 
225 1 1 1.69738 1.66698 3.26364 
126 1 1 2.34305 2.36907 1.61998 
127 1 1 2.27463 1.61838 2.42786 
132 1 1 3.21344 2.53504 2.32917 
226 1 1 2.4317 2.51532 3.11486 
131 1 1 4.0669 1.69186 2.22712 
133 1 1 5.0096 1.44056 1.72368 
151 1 1 4.12442 3.26657 2.29161 
230 1 1 4.07905 2.4256 3.05929 
149 1 1 3.14376 3.20054 1.5884 
136 1 1 4.96977 2.37971 2.43274 
140 1 1 6.50999 2.45667 2.57058 
234 1 1 5.67985 2.29064 3.19027 
137 1 1 6.48816 1.65321 1.79069 
139 1 1 7.36183 1.59127 2.64393 
138 1 1 7.36915 2.47994 1.69307 
241 1 1 0.106081 3.38549 3.19894 
143 1 1 0.858393 3.27172 2.3772 
148 1 1 1.71286 4.0702 2.54822 
144 1 1 0.0874519 4.23568 2.35641 
244 1 1 1.02401 4.08601 3.32501 
265 1 1 1.66785 4.89916 3.15617 
147 1 1 2.42818 3.23369 2.33828 
146 1 1 2.40518 4.05638 1.61227 
152 1 1 3.24134 3.94504 2.3259 
246 1 1 2.50332 4.0083 3.14514 
249 1 1 3.23435 3.19751 3.28315 
150 1 1 4.04631 3.97179 1.57312 
171 1 1 4.14586 4.73356 2.37266 
153 1 1 4.92863 3.27703 1.56562 
154 1 1 5.79337 4.05107 1.64086 
155 1 1 5.74872 3.18678 2.36414 
273 1 1 5.01986 4.69431 3.1827 
156 1 1 4.95255 3.87264 2.54567 
160 1 1 6.51292 4.03623 2.53253 
141 1 1 8.05887 3.26447 1.7709 
158 1 1 7.26594 4.16947 1.67995 
177 1 1 6.53444 4.87142 1.7879 
159 1 1 7.24723 3.2519 2.53956 
258 1 1 7.37786 3.98479 3.25716 
242 1 1 0.977263 5.02977 2.39391 
165 1 1 1.67238 4.80414 1.62017 
168 1 1 1.77671 5.81308 2.31407 
261 1 1 0.09856 4.68173 3.45448 
167 1 1 2.48993 4.85504 2.45003 
187 1 1 2.49421 6.58948 2.11964 
266 1 1 2.48204 5.71374 3.12005 
269 1 1 3.39616 4.8464 3.03867 
172 1 1 3.23809 5.72083 2.39955 
191 1 1 3.92705 6.47626 2.2581 
289 1 1 3.08388 6.47496 3.49002 
175 1 1 5.73578 4.82367 2.44285 
176 1 1 4.86911 5.57429 2.4016 
195 1 1 5.57291 6.32091 2.58139 
274 1 1 5.67728 5.58894 3.35121 
180 1 1 6.4369 5.63211 2.44572 
277 1 1 6.46934 4.97515 3.20856 
179 1 1 7.32368 4.95125 2.58314 
164 1 1 0.0703955 5.67207 2.68833 
199 1 1 7.21799 6.41855 2.60886 
182 1 1 0.681161 7.3075 1.48526 
105 1 1 1.51958 8.04713 1.52834 
183 1 1 0.815198 6.74932 2.39239 
188 1 1 1.61011 7.32138 2.34453 
186 1 1 2.39952 7.40822 1.50627 
107 1 1 2.36594 0.109984 2.24595 
109 1 1 3.14858 0.176206 1.53981 
192 1 1 3.22236 7.38951 2.29229 
293 1 1 4.6226 6.59877 3.06629 
190 1 1 3.85901 7.36514 1.40589 
290 1 1 3.84254 7.27837 3.14495 
213 1 1 4.7538 0.0620546 3.21255 
194 1 1 5.68853 7.24168 1.66911 
115 1 1 5.54108 7.94191 2.43845 
196 1 1 4.62475 7.29278 2.32127 
200 1 1 6.39032 7.12288 2.49579 
119 1 1 7.15906 8.01812 2.5074 
184 1 1 7.943 7.1965 2.52858 
202 1 1 0.925199 0.893198 3.31567 
223 1 1 0.884389 1.66632 4.01466 
203 1 1 0.861896 0.172915 4.18472 
321 1 1 0.0165375 1.82093 4.88698 
205 1 1 1.63058 0.0316062 3.33033 
206 1 1 2.23628 0.867897 3.15461 
208 1 1 1.78787 0.913967 4.13863 
325 1 1 1.52231 1.62813 5.01478 
210 1 1 4.03059 0.862605 3.20856 
212 1 1 3.32655 0.778386 4.01401 
216 1 1 4.86849 0.698261 4.1001 
229 1 1 3.33515 1.64693 2.99065 
231 1 1 3.87946 1.63653 3.97881 
214 1 1 5.67706 0.819436 3.32804 
237 1 1 6.46276 1.51262 3.34841 
220 1 1 6.40598 0.719142 4.196 
235 1 1 5.67626 1.48744 4.0285 
337 1 1 6.22707 1.66813 4.92536 
204 1 1 0.102697 0.806319 4.024 
218 1 1 7.31975 0.546262 3.4276 
219 1 1 7.16585 7.88761 4.18543 
222 1 1 0.778697 2.45466 3.24764 
245 1 1 1.6022 3.15179 3.11756 
243 1 1 0.999059 3.24904 4.08173 
322 1 1 0.76786 2.60238 4.9699 
228 1 1 1.646 2.39803 4.23385 
227 1 1 2.58616 1.52424 3.97462 
326 1 1 2.41283 2.39483 4.95866 
232 1 1 3.06904 2.46266 3.93196 
251 1 1 4.03685 3.19017 4.0269 
330 1 1 4.13678 2.41513 4.7501 
257 1 1 6.39973 3.24335 3.24908 
253 1 1 4.88836 3.07313 3.2643 
236 1 1 4.94128 2.26275 3.97511 
255 1 1 5.56176 3.11066 3.99708 
240 1 1 6.35441 2.42042 3.90482 
238 1 1 7.25899 2.5552 3.36403 
239 1 1 7.39829 1.55348 3.82589 
224 1 1 0.11781 2.4113 4.11647 
341 1 1 0.00692075 3.23568 4.84807 
338 1 1 7.11181 2.25144 4.65112 
248 1 1 1.84569 4.06625 4.00853 
361 1 1 0.15529 4.55068 5.00702 
247 1 1 2.35824 3.18917 3.89819 
267 1 1 2.46526 4.87697 3.84037 
365 1 1 1.88344 5.0255 4.81941 
345 1 1 1.7151 3.15306 4.83448 
250 1 1 3.99888 3.89969 3.29646 
252 1 1 3.16292 4.02749 3.87706 
271 1 1 3.90812 4.73829 3.97855 
256 1 1 4.80222 4.13144 4.04955 
349 1 1 3.28486 2.99917 4.74339 
254 1 1 5.66811 3.86194 3.15815 
275 1 1 5.62099 4.75593 4.01543 
259 1 1 7.31712 3.29414 4.09014 
260 1 1 6.45582 4.05218 3.98676 
358 1 1 0.12969 3.90191 4.16804 
263 1 1 1.00097 4.64685 4.23438 
262 1 1 0.959225 5.76383 3.05965 
264 1 1 0.236982 5.36182 4.13009 
283 1 1 1.03335 6.4554 4.23484 
362 1 1 0.893594 5.60941 5.08375 
268 1 1 1.48496 5.57067 3.95023 
287 1 1 2.41817 6.22214 4.2325 
366 1 1 2.60421 5.7519 5.07658 
369 1 1 3.02334 4.87316 4.83735 
389 1 1 3.35045 6.54256 5.07554 
272 1 1 3.23364 5.51835 3.89932 
270 1 1 4.12108 5.66915 2.97347 
370 1 1 3.75733 5.57641 4.94096 
291 1 1 3.97437 6.34311 4.12519 
276 1 1 4.67998 5.51332 3.95377 
280 1 1 6.53887 5.83092 4.08191 
297 1 1 6.24782 6.49859 3.31973 
295 1 1 5.38524 6.21473 4.0302 
397 1 1 6.4011 6.4282 4.84457 
278 1 1 7.3174 5.72779 3.3364 
279 1 1 7.24649 4.71441 4.10491 
285 1 1 1.81398 6.42276 3.41278 
282 1 1 0.801545 7.20647 3.37376 
281 1 1 0.159263 6.43254 3.63572 
288 1 1 1.72486 7.35987 4.01867 
284 1 1 8.05564 7.30343 4.15749 
385 1 1 1.79063 6.49877 4.97161 
286 1 1 2.47215 7.19859 3.13553 
207 1 1 2.54134 0.0130477 4.06519 
292 1 1 3.55923 7.26023 4.18577 
386 1 1 2.66373 7.26146 4.78536 
211 1 1 4.08018 8.07914 3.9958 
209 1 1 3.1849 0.225565 3.15244 
296 1 1 4.67887 7.27295 4.10105 
390 1 1 4.0616 7.20234 5.14307 
294 1 1 5.34226 7.21402 3.30613 
215 1 1 5.57897 8.05159 4.07987 
201 1 1 0.114023 8.06879 3.31774 
298 1 1 7.28833 7.27626 3.31273 
300 1 1 6.44704 7.22272 4.01477 
299 1 1 7.29368 6.40167 4.0071 
302 1 1 0.644936 1.00913 4.92768 
323 1 1 0.68834 1.78835 5.64693 
303 1 1 0.781487 0.158554 5.7426 
304 1 1 8.03366 0.775974 5.57192 
308 1 1 1.69899 0.79929 5.63646 
306 1 1 2.46693 0.861525 4.89012 
327 1 1 2.43355 1.61104 5.61679 
305 1 1 1.73039 7.99647 4.73686 
406 1 1 2.4582 0.970728 6.67661 
425 1 1 1.48782 1.5354 6.30873 
310 1 1 4.02226 0.760813 5.06369 
333 1 1 4.80529 1.51278 4.80006 
313 1 1 4.7234 0.0835416 5.00053 
312 1 1 3.06857 0.704864 5.80601 
331 1 1 3.91823 1.72502 5.77092 
316 1 1 4.83232 0.867836 5.66441 
314 1 1 5.60748 0.813817 4.83629 
320 1 1 6.42019 0.748818 5.60483 
335 1 1 5.41473 1.68348 5.70112 
315 1 1 5.55264 0.0895445 5.74851 
318 1 1 7.2199 0.798894 4.83789 
317 1 1 6.35964 7.93755 4.89925 
319 1 1 7.06938 7.98689 5.58482 
343 1 1 0.775803 3.28439 5.70879 
324 1 1 8.02679 2.54028 5.72902 
445 1 1 1.69638 3.23156 6.62424 
422 1 1 0.871266 2.44972 6.37839 
328 1 1 1.58348 2.48878 5.59809 
449 1 1 3.36936 3.28714 6.50116 
426 1 1 2.32161 2.50058 6.2912 
329 1 1 3.27993 1.68234 4.89768 
332 1 1 3.2229 2.44162 5.59341 
336 1 1 4.78251 2.53697 5.7096 
334 1 1 5.52879 2.43193 4.89786 
340 1 1 6.49441 2.40751 5.57576 
355 1 1 5.68292 3.25427 5.79133 
457 1 1 6.47878 3.01856 6.47655 
434 1 1 5.68929 2.35949 6.44968 
339 1 1 7.13983 1.59191 5.58984 
359 1 1 7.13622 3.16285 5.38115 
441 1 1 0.123447 3.26903 6.49661 
342 1 1 0.863662 3.86652 4.88793 
363 1 1 1.16211 4.67335 5.51585 
442 1 1 0.575117 4.1625 6.33384 
348 1 1 1.74118 3.80663 5.76048 
347 1 1 2.65948 3.22033 5.56154 
346 1 1 2.50733 3.90141 4.74102 
367 1 1 2.38341 4.82455 5.91747 
351 1 1 4.03637 3.26887 5.69745 
353 1 1 4.79729 3.18167 4.80065 
350 1 1 3.99284 3.82221 4.78749 
352 1 1 3.2171 4.21017 5.58236 
371 1 1 4.02969 4.88038 5.77378 
453 1 1 4.82608 3.21911 6.49108 
354 1 1 5.67237 4.02279 4.78265 
356 1 1 4.77417 4.09624 5.48228 
360 1 1 6.41079 3.95475 5.67756 
357 1 1 6.36044 3.16578 4.78214 
373 1 1 4.66547 4.94692 4.81587 
344 1 1 7.74823 3.94473 5.6916 
379 1 1 7.21243 4.03348 4.72821 
458 1 1 7.15741 3.82231 6.43355 
364 1 1 7.97296 5.53458 5.73143 
383 1 1 0.925375 6.4191 5.73212 
381 1 1 8.02834 6.25631 4.7545 
368 1 1 1.7428 5.68068 5.73054 
387 1 1 2.38877 6.49917 5.83492 
372 1 1 3.22066 5.65507 5.92128 
469 1 1 3.32091 4.81143 6.52542 
466 1 1 2.44615 5.68049 6.59732 
489 1 1 3.10731 6.60164 6.63657 
376 1 1 4.82871 5.42951 5.73614 
393 1 1 4.66933 6.36677 4.88402 
391 1 1 4.02363 6.28265 5.83278 
377 1 1 6.47184 4.73373 4.92571 
374 1 1 5.5343 5.53158 4.82552 
375 1 1 5.75327 4.81282 5.66276 
378 1 1 7.30428 5.47451 4.80777 
380 1 1 6.40024 5.62817 5.56963 
478 1 1 7.12642 4.7775 5.69979 
399 1 1 7.26105 6.4253 5.57176 
382 1 1 0.933238 7.40929 4.75116 
384 1 1 0.0951128 7.08501 5.61387 
388 1 1 1.56442 7.3084 5.60455 
307 1 1 2.39135 8.02991 5.75045 
309 1 1 3.16676 0.00798142 5.05334 
311 1 1 3.97997 0.0186191 5.76965 
392 1 1 3.27323 7.33164 5.94176 
396 1 1 4.90803 7.28369 5.85189 
394 1 1 5.37718 7.21024 4.9352 
395 1 1 5.56124 6.43473 5.7035 
398 1 1 7.14515 7.17107 4.93199 
301 1 1 0.134912 8.04167 4.90574 
400 1 1 6.49096 7.12711 5.88342 
498 1 1 7.55861 7.34568 6.43103 
1 1 1 8.02167 0.0353323 7.91549 
402 1 1 0.692903 1.04377 6.32037 
404 1 1 -0.00216811 0.842363 7.18693 
403 1 1 0.869115 0.0707662 7.30424 
9 1 1 3.17476 0.124238 8.06475 
429 1 1 3.06155 1.79837 6.51257 
408 1 1 1.61834 0.875466 7.19489 
412 1 1 3.17461 0.854859 7.34982 
410 1 1 4.11223 0.878887 6.43838 
409 1 1 3.45264 0.133082 6.60286 
411 1 1 4.0902 0.138441 7.33391 
433 1 1 4.72415 1.66375 6.45779 
414 1 1 5.4704 0.79584 6.55888 
416 1 1 4.85596 1.04441 7.2953 
420 1 1 6.39018 0.744197 7.23329 
413 1 1 4.84346 8.04633 6.56777 
401 1 1 0.0774945 0.0663276 6.59206 
18 1 1 7.15609 0.718727 8.05442 
417 1 1 6.35679 8.06702 6.40788 
418 1 1 7.22903 0.815532 6.20657 
21 1 1 0.0563576 1.66793 0.0972846 
41 1 1 8.01612 3.27283 0.0210866 
423 1 1 0.88285 1.5122 7.24223 
443 1 1 0.926371 3.38105 7.22319 
428 1 1 1.47874 2.35665 7.2011 
427 1 1 2.42561 1.78534 7.35299 
49 1 1 3.27494 3.1938 0.120042 
447 1 1 2.46978 3.18066 7.35667 
432 1 1 3.28352 2.43373 7.25685 
45 1 1 1.60287 3.13972 8.00932 
431 1 1 3.98173 1.65519 7.32186 
430 1 1 4.05698 2.45209 6.59226 
451 1 1 4.10229 3.20372 7.28889 
34 1 1 5.70159 2.50429 0.0201521 
436 1 1 4.9261 2.38284 7.37461 
435 1 1 5.76466 1.56046 7.35224 
455 1 1 5.68593 3.12972 7.17826 
440 1 1 6.56235 2.31992 7.27644 
421 1 1 0.0383418 1.72515 6.52781 
424 1 1 8.03362 2.37519 7.36663 
437 1 1 6.41219 1.62998 6.39345 
438 1 1 7.32353 2.47394 6.54892 
439 1 1 7.1838 1.39427 7.11816 
459 1 1 7.25864 3.24082 7.46053 
444 1 1 7.77853 4.11694 7.49509 
448 1 1 1.97201 4.00311 7.40476 
46 1 1 2.59705 3.98952 0.16306 
65 1 1 1.5663 4.949 8.01726 
446 1 1 2.66463 4.07191 6.49994 
452 1 1 3.24026 3.83638 7.34987 
450 1 1 4.02576 4.01693 6.38879 
471 1 1 3.95575 4.74128 7.33328 
54 1 1 5.88323 4.15228 0.052415 
454 1 1 5.76925 3.91977 6.52283 
456 1 1 4.79353 4.06472 7.29329 
460 1 1 6.49748 4.00564 7.28214 
479 1 1 7.17105 5.00155 7.2524 
465 1 1 1.57476 4.58024 6.51753 
461 1 1 7.88604 4.88607 6.51862 
481 1 1 8.00283 6.41295 6.45268 
463 1 1 0.642704 4.7152 7.26978 
462 1 1 0.764099 5.58832 6.29124 
464 1 1 8.05093 5.5739 7.27059 
468 1 1 1.55248 5.47204 7.10857 
467 1 1 2.49407 4.89702 7.1728 
472 1 1 3.22922 5.62781 7.25494 
487 1 1 2.36967 6.60753 7.58077 
470 1 1 4.21661 5.61894 6.61994 
491 1 1 4.03616 6.55032 7.28126 
93 1 1 4.8729 6.49548 8.04405 
473 1 1 4.92041 4.72219 6.41452 
477 1 1 6.42663 4.77163 6.50947 
476 1 1 4.99854 5.62365 7.24159 
475 1 1 5.61377 4.71755 7.22645 
74 1 1 5.60901 5.60815 0.00515182 
474 1 1 5.58742 5.67511 6.39027 
77 1 1 6.53795 5.07941 0.0674481 
499 1 1 7.26399 5.66868 6.43762 
79 1 1 7.37668 5.6437 0.041814 
480 1 1 6.46929 5.72654 7.43542 
78 1 1 7.42604 6.36258 7.27449 
81 1 1 7.99611 6.40778 8.0574 
82 1 1 0.884797 7.15555 0.0294313 
85 1 1 1.56615 6.3583 7.97083 
483 1 1 0.621145 6.38877 7.16187 
482 1 1 0.911537 7.39442 6.49426 
484 1 1 0.0237511 7.20382 7.37002 
407 1 1 2.49099 0.0368631 7.04535 
405 1 1 1.60587 8.01461 6.36124 
488 1 1 1.65381 7.44492 7.45065 
485 1 1 1.55911 6.49023 6.54132 
486 1 1 2.2452 7.30849 6.47379 
493 1 1 4.86511 6.50395 6.51695 
490 1 1 4.05344 7.36682 6.63183 
492 1 1 3.25108 7.40996 7.30498 
496 1 1 4.70705 7.28444 7.39076 
494 1 1 5.60514 7.25122 6.61389 
415 1 1 5.59026 8.00032 7.29582 
495 1 1 5.70221 6.46237 7.29981 
98 1 1 7.17996 7.23102 8.04909 
497 1 1 6.46619 6.20524 6.37477 
97 1 1 6.34469 6.3441 0.111797 
500 1 1 6.51887 7.10277 7.0338 
419 1 1 7.27221 7.93664 7.20302 
