ITEM: TIMESTEP
45000
ITEM: NUMBER OF ATOMS
500
ITEM: BOX BOUNDS pp pp pp
0 8.07388
0 8.07388
0 8.07388
ITEM: ATOMS id type mass x y z 
2 1 1 0.954643 0.854713 0.0305656 
4 1 1 7.93928 0.747648 0.781227 
21 1 1 0.00546412 1.5134 0.115565 
8 1 1 1.60042 0.8647 0.907928 
23 1 1 0.925062 1.63433 0.935065 
7 1 1 2.50363 0.134567 0.912762 
129 1 1 3.12949 1.58946 1.67238 
6 1 1 2.55333 0.785669 8.0811 
12 1 1 3.18163 0.94707 0.853537 
10 1 1 4.11752 0.688421 0.218967 
16 1 1 4.70817 0.923336 1.03734 
11 1 1 4.03045 7.96677 0.893375 
33 1 1 4.6493 1.74362 0.0792731 
35 1 1 5.66697 1.50888 0.90406 
13 1 1 4.91023 -0.0172041 0.116364 
15 1 1 5.71326 7.99011 0.7977 
117 1 1 6.48979 8.05154 1.54918 
113 1 1 4.96321 0.0172769 1.42853 
20 1 1 6.4868 0.804897 0.77875 
18 1 1 7.22317 0.6742 8.01915 
39 1 1 7.31693 1.57738 0.783394 
118 1 1 7.40179 0.841087 1.59782 
19 1 1 7.26488 0.0396596 0.782102 
37 1 1 6.51133 1.50587 8.02156 
43 1 1 0.728733 3.39072 0.768245 
28 1 1 1.56886 2.497 0.806636 
22 1 1 0.74634 2.33505 8.08453 
25 1 1 1.65656 1.57445 0.12982 
27 1 1 2.39512 1.72325 0.888082 
32 1 1 3.13415 2.45537 0.892393 
26 1 1 2.39865 2.38816 0.0619463 
29 1 1 3.26599 1.61057 8.03439 
31 1 1 3.92199 1.74451 0.822536 
51 1 1 3.8478 3.29099 0.746354 
133 1 1 4.73463 1.96518 1.69463 
153 1 1 4.79318 3.24975 1.52263 
30 1 1 4.01224 2.52762 8.10936 
53 1 1 4.8029 3.38105 0.0598787 
36 1 1 4.68769 2.50007 0.872899 
40 1 1 6.60013 2.33347 0.689543 
134 1 1 5.67268 2.51449 1.41309 
57 1 1 6.58157 3.09568 0.082701 
24 1 1 0.101168 2.43757 0.837298 
59 1 1 7.30222 3.39887 0.776918 
38 1 1 7.45677 2.37755 0.148419 
142 1 1 0.898586 4.05889 1.68525 
45 1 1 1.47763 3.22957 8.02677 
42 1 1 0.787632 4.02384 7.98822 
49 1 1 3.07992 3.17643 7.96279 
48 1 1 1.47295 4.00691 0.842918 
47 1 1 2.54785 3.25994 0.863328 
52 1 1 3.1972 4.12387 0.975248 
67 1 1 2.19107 4.77049 0.9439 
46 1 1 2.56438 4.09543 -0.0347821 
150 1 1 4.12744 4.07682 1.5661 
71 1 1 4.21812 4.98821 0.858155 
50 1 1 4.15379 4.24896 0.0957554 
56 1 1 5.03011 4.20279 0.702957 
55 1 1 5.70547 3.49469 0.767457 
75 1 1 5.62701 4.9583 0.742851 
60 1 1 6.48127 4.13604 0.747675 
54 1 1 5.76431 3.97621 8.04279 
44 1 1 0.0497825 4.0765 0.733688 
58 1 1 7.29916 4.14186 7.86578 
161 1 1 7.27213 4.83371 0.629987 
77 1 1 6.42375 4.89736 8.07739 
63 1 1 0.879286 4.85795 0.786936 
83 1 1 0.882689 6.43398 0.822461 
65 1 1 1.61681 4.74304 8.02329 
68 1 1 1.62642 5.64078 0.762375 
166 1 1 2.25555 5.59767 1.66251 
85 1 1 1.55132 6.55643 8.0299 
87 1 1 2.30701 6.38956 0.664532 
185 1 1 1.67053 6.55678 1.49631 
72 1 1 3.12081 5.65354 0.969302 
169 1 1 3.12048 4.79756 1.68808 
91 1 1 4.03214 6.44656 0.721546 
70 1 1 3.91731 5.66103 7.98486 
170 1 1 4.02659 5.65993 1.65966 
173 1 1 4.8768 4.74884 1.54923 
76 1 1 4.87066 5.72617 0.960105 
193 1 1 4.68241 6.46561 1.60189 
174 1 1 5.80023 5.82279 1.42905 
64 1 1 0.163634 5.68622 0.875827 
80 1 1 6.47892 5.70053 0.588097 
99 1 1 7.34872 6.53805 0.627206 
181 1 1 8.02964 6.3754 1.67004 
79 1 1 7.33385 5.66073 8.02732 
1 1 1 0.128661 0.0184304 0.103864 
3 1 1 0.889857 0.143684 0.801395 
101 1 1 8.01375 8.02027 1.47262 
182 1 1 0.713183 7.21296 1.53456 
189 1 1 3.29937 6.53626 1.62411 
88 1 1 1.86237 7.41146 0.775048 
86 1 1 2.40466 7.30483 7.9743 
92 1 1 3.01793 7.14515 0.784871 
186 1 1 2.40535 7.20813 1.75344 
190 1 1 4.03468 7.27502 1.77409 
90 1 1 4.09997 7.29342 0.0255969 
96 1 1 4.72891 7.20905 0.934653 
95 1 1 5.72407 6.45965 0.701765 
194 1 1 5.68396 7.25167 1.62423 
100 1 1 6.49198 7.34268 0.882189 
84 1 1 0.190723 7.27939 0.711817 
98 1 1 7.37949 7.42896 0.10727 
198 1 1 7.15028 7.18073 1.61836 
102 1 1 0.879076 0.729398 1.6409 
202 1 1 0.783464 0.826901 3.16637 
104 1 1 0.144754 0.755576 2.37614 
103 1 1 0.785353 7.93023 2.43082 
121 1 1 0.0460989 1.60004 1.67405 
123 1 1 0.709238 1.51734 2.463 
201 1 1 0.0144887 0.12693 3.17545 
106 1 1 2.36005 0.775444 1.67877 
108 1 1 1.65624 0.847195 2.54834 
206 1 1 2.41898 0.871807 3.41397 
112 1 1 3.21013 0.81075 2.53487 
105 1 1 1.57762 8.02011 1.56378 
107 1 1 2.41373 8.01733 2.45453 
110 1 1 3.91306 0.790006 1.6464 
116 1 1 4.76076 0.831315 2.44033 
131 1 1 3.92364 1.56758 2.36761 
210 1 1 3.99741 0.823915 3.21447 
114 1 1 5.69183 0.711998 1.5255 
135 1 1 5.61669 1.49847 2.20436 
115 1 1 5.65155 -0.00709566 2.31784 
217 1 1 6.35666 0.0554108 3.06722 
120 1 1 6.38682 0.794741 2.39692 
139 1 1 7.21802 1.4502 2.39688 
119 1 1 7.21214 8.03473 2.46961 
125 1 1 1.66142 1.72802 1.617 
122 1 1 0.872552 2.37991 1.61476 
128 1 1 1.43812 2.3945 2.57112 
124 1 1 8.04544 2.41174 2.29056 
126 1 1 2.50269 2.44635 1.78726 
127 1 1 2.40277 1.71278 2.58179 
229 1 1 3.18013 1.70169 3.25319 
132 1 1 3.11197 2.57266 2.5407 
149 1 1 3.0904 3.28738 1.689 
130 1 1 3.80029 2.5268 1.70102 
136 1 1 4.97944 2.38978 2.52885 
137 1 1 6.53743 1.62972 1.6132 
140 1 1 6.44573 2.46833 2.35307 
138 1 1 7.23403 2.37675 1.62536 
141 1 1 8.06202 3.14628 1.58545 
159 1 1 7.29868 3.3568 2.27651 
143 1 1 0.582806 3.2232 2.56515 
148 1 1 1.51344 3.87839 2.73047 
165 1 1 1.54642 4.8801 1.74419 
145 1 1 1.61459 3.26394 1.45011 
147 1 1 2.32473 3.22202 2.455 
146 1 1 2.36877 4.1076 1.66356 
246 1 1 2.49414 3.85792 3.47393 
151 1 1 4.07319 3.11248 2.37388 
152 1 1 3.28341 4.06963 2.4073 
156 1 1 4.89352 3.99686 2.34855 
250 1 1 4.08571 4.11022 3.12044 
273 1 1 4.83391 4.83326 3.17043 
157 1 1 6.52636 3.176 1.44401 
155 1 1 5.70635 3.18593 2.33304 
154 1 1 5.67202 4.15427 1.51564 
254 1 1 5.73745 3.89824 3.25554 
158 1 1 7.10015 4.10163 1.54332 
144 1 1 7.98114 4.16347 2.29628 
177 1 1 6.43721 4.94084 1.52225 
160 1 1 6.41333 3.98946 2.41741 
162 1 1 0.812153 5.56225 1.70326 
163 1 1 8.04498 4.779 1.35595 
242 1 1 0.709957 4.69175 2.45488 
168 1 1 1.50877 5.69822 2.42978 
281 1 1 8.01351 6.36273 3.39851 
167 1 1 2.32859 4.78553 2.5763 
172 1 1 3.17565 5.62622 2.34504 
187 1 1 2.42183 6.3029 2.35719 
289 1 1 3.10554 6.41213 3.25335 
269 1 1 3.32128 4.97749 3.14482 
266 1 1 2.35682 5.54549 3.21205 
171 1 1 4.08272 4.84252 2.22479 
191 1 1 4.06214 6.55664 2.53382 
176 1 1 4.66048 5.76896 2.50249 
270 1 1 4.08728 5.63628 3.25233 
175 1 1 5.62773 4.63312 2.41166 
195 1 1 5.45168 6.37797 2.27527 
274 1 1 5.73127 5.68533 3.16336 
178 1 1 7.27329 5.60298 1.35972 
164 1 1 0.155674 5.73476 2.57802 
179 1 1 7.21277 4.82674 2.3791 
180 1 1 6.44628 5.58426 2.34944 
278 1 1 7.18132 5.55501 3.25645 
183 1 1 0.880029 6.55336 2.25122 
184 1 1 7.93483 7.33196 2.33401 
282 1 1 0.553873 7.10803 3.16462 
109 1 1 3.24554 8.05296 1.67537 
188 1 1 1.68124 7.29821 2.38973 
192 1 1 3.2468 7.23651 2.49325 
209 1 1 3.26238 -0.00127778 3.25319 
111 1 1 3.9704 -0.0105567 2.36879 
290 1 1 4.06493 7.31617 3.16545 
196 1 1 4.85289 7.25206 2.35194 
293 1 1 5.00808 6.40473 3.13836 
294 1 1 5.74592 7.23596 3.16355 
297 1 1 6.46627 6.40801 3.21774 
197 1 1 6.44117 6.49752 1.75632 
199 1 1 7.36813 6.28693 2.49025 
200 1 1 6.4994 7.22309 2.43393 
298 1 1 7.33011 7.22228 3.15447 
204 1 1 8.02157 0.687855 4.04382 
302 1 1 0.728153 0.819546 4.91856 
221 1 1 8.00483 1.60197 3.37115 
305 1 1 1.51461 7.94257 4.99747 
321 1 1 7.98244 1.54498 4.67316 
208 1 1 1.69888 0.727487 4.032 
227 1 1 2.43022 1.67397 4.07708 
205 1 1 1.5519 7.96353 3.1765 
212 1 1 3.21773 0.766153 4.17915 
216 1 1 4.95443 0.907156 4.0787 
313 1 1 4.78353 8.02784 4.8339 
214 1 1 5.67168 0.851801 3.03758 
213 1 1 4.77712 0.262961 3.30794 
215 1 1 5.46687 0.00813317 4.00365 
333 1 1 5.05349 1.63692 4.84078 
220 1 1 6.3201 0.70201 4.0058 
218 1 1 7.30991 0.736073 3.26434 
219 1 1 7.19567 8.0609 3.78655 
239 1 1 7.24514 1.50782 4.04485 
222 1 1 0.546546 2.38949 3.23689 
223 1 1 0.873264 1.48524 4.07096 
245 1 1 1.49841 3.18017 3.54509 
243 1 1 0.694116 3.08899 4.17052 
225 1 1 1.62214 1.63624 3.273 
228 1 1 1.59841 2.39519 4.15865 
226 1 1 2.37858 2.58689 3.43838 
232 1 1 3.18697 2.39055 4.17116 
249 1 1 3.33004 3.35541 3.23687 
247 1 1 2.38106 3.25765 4.31458 
231 1 1 3.94124 1.64853 4.01002 
230 1 1 4.04279 2.35565 3.19185 
253 1 1 4.71424 3.28487 3.1573 
233 1 1 4.76201 1.54881 3.32026 
251 1 1 4.07979 3.03084 4.12966 
236 1 1 4.85772 2.25535 4.05065 
330 1 1 4.03136 2.221 4.88388 
234 1 1 5.61444 2.45567 3.3005 
235 1 1 5.724 1.60116 3.95665 
237 1 1 6.51564 1.57974 3.12303 
334 1 1 5.95521 2.47016 4.94334 
357 1 1 6.46345 3.30411 4.85551 
238 1 1 7.25933 2.34706 3.10398 
224 1 1 7.96593 2.35537 4.08092 
240 1 1 6.55083 2.38807 3.91957 
241 1 1 7.84052 3.22232 3.30994 
244 1 1 0.672501 3.88182 3.52989 
263 1 1 0.63224 4.71453 4.18907 
342 1 1 0.653836 3.86141 5.00031 
248 1 1 1.6343 4.08937 4.32127 
252 1 1 3.45449 3.99171 4.00192 
256 1 1 4.99801 3.91258 4.02409 
350 1 1 4.19635 4.0366 4.85926 
277 1 1 6.36976 4.70728 3.27095 
255 1 1 5.71638 3.17796 4.16703 
275 1 1 5.51918 4.83104 4.05456 
260 1 1 6.54379 4.01922 4.0321 
257 1 1 6.56441 3.14745 3.20889 
259 1 1 7.26271 3.21368 4.18539 
358 1 1 7.99855 3.92652 4.08101 
258 1 1 7.20316 4.09881 3.06936 
279 1 1 7.30247 4.96884 4.05365 
285 1 1 1.70006 6.37788 3.13371 
262 1 1 0.731596 5.73532 3.31415 
268 1 1 1.54496 5.70545 3.93666 
267 1 1 2.46619 4.76203 3.86261 
265 1 1 1.47937 4.74997 3.40129 
287 1 1 2.27774 6.43363 4.01167 
369 1 1 3.46947 4.84109 4.97664 
271 1 1 4.16156 4.83684 4.14101 
272 1 1 3.21391 5.54473 4.02642 
370 1 1 4.05619 5.76218 4.66439 
276 1 1 4.81653 5.68808 3.92227 
280 1 1 6.30809 5.50802 4.18666 
397 1 1 6.46949 6.58291 4.8658 
261 1 1 8.01012 4.89592 3.30025 
264 1 1 0.121326 5.61188 4.08906 
361 1 1 8.01523 4.74985 4.98838 
378 1 1 7.21621 5.67187 4.83898 
203 1 1 0.794446 8.08134 4.03753 
283 1 1 0.734346 6.4204 4.05354 
382 1 1 0.823205 7.26222 4.83841 
288 1 1 1.51653 7.05331 4.0779 
284 1 1 7.97758 7.48904 3.95798 
286 1 1 2.48844 7.32008 3.29413 
207 1 1 2.36946 8.04482 3.96925 
292 1 1 3.36828 7.16328 3.99426 
309 1 1 3.02635 7.84391 4.7828 
291 1 1 4.12832 6.48209 3.84834 
211 1 1 4.0188 0.127379 4.14484 
295 1 1 5.69692 6.60662 4.00646 
296 1 1 4.80592 7.21599 4.00867 
300 1 1 6.39193 7.43472 4.1009 
393 1 1 4.80528 6.58975 4.92553 
394 1 1 5.53767 7.27894 4.8276 
299 1 1 7.20855 6.69725 4.1692 
398 1 1 7.241 7.53216 4.76915 
323 1 1 0.725745 1.60302 5.60809 
303 1 1 0.719281 0.0980016 5.60746 
308 1 1 1.51083 0.748304 5.82457 
306 1 1 2.38263 0.805822 4.91192 
307 1 1 2.41494 0.0852461 5.65204 
327 1 1 2.41137 1.52663 5.76833 
325 1 1 1.55272 1.55605 4.97741 
329 1 1 3.13634 1.5636 5.00108 
406 1 1 2.35572 0.711199 6.56093 
312 1 1 3.31737 0.735752 5.4615 
310 1 1 4.21377 0.923235 4.78555 
316 1 1 4.75258 0.739315 5.65501 
311 1 1 4.03481 0.0549754 5.59131 
433 1 1 4.96239 1.58591 6.55 
413 1 1 4.87807 8.01381 6.52802 
314 1 1 5.53804 0.776952 4.94225 
320 1 1 6.42998 0.725302 5.68212 
335 1 1 5.76503 1.54866 5.69259 
315 1 1 5.63228 8.03358 5.78672 
414 1 1 5.76818 0.843245 6.50939 
304 1 1 7.97307 1.01598 5.62312 
318 1 1 7.05101 0.776272 4.79822 
319 1 1 7.1594 7.95529 5.69179 
339 1 1 7.13678 1.52855 5.62349 
317 1 1 6.2336 0.0235014 4.94863 
322 1 1 0.706077 2.30885 4.8497 
324 1 1 8.04009 2.32876 5.71918 
341 1 1 7.92744 3.22385 4.97278 
441 1 1 8.03475 3.26931 6.4427 
345 1 1 1.60526 3.23008 4.98999 
349 1 1 3.59638 3.13378 5.00313 
328 1 1 1.56824 2.28959 5.74077 
326 1 1 2.35405 2.41954 4.97416 
347 1 1 2.63769 3.29373 5.67732 
331 1 1 4.10397 1.67647 5.81435 
332 1 1 3.24908 2.34093 5.69074 
353 1 1 4.85417 3.13223 4.90121 
351 1 1 4.32332 3.18157 5.82212 
336 1 1 5.02724 2.40023 5.59597 
340 1 1 6.47861 2.46292 5.77772 
453 1 1 4.78303 3.18816 6.70006 
434 1 1 5.64479 2.38042 6.52876 
337 1 1 6.433 1.57102 4.77644 
338 1 1 7.19466 2.40358 4.90287 
359 1 1 7.21349 3.1477 5.62626 
343 1 1 0.9274 3.09142 5.92788 
344 1 1 7.94947 3.96353 5.75022 
363 1 1 0.655628 4.69092 5.70498 
346 1 1 2.56884 4.25018 4.93563 
348 1 1 1.71303 4.29707 5.47196 
365 1 1 1.61977 5.03974 4.7129 
367 1 1 2.64474 4.94797 5.60768 
352 1 1 3.44157 3.9501 5.66748 
356 1 1 5.11181 4.11731 5.55706 
354 1 1 5.80333 4.11724 4.73976 
377 1 1 6.57252 4.74036 4.77686 
355 1 1 5.67781 3.28355 5.86332 
454 1 1 5.53766 3.92019 6.53987 
477 1 1 6.25603 4.81875 6.51781 
379 1 1 7.33906 4.01491 4.90681 
360 1 1 6.33195 4.17534 5.66832 
458 1 1 7.20207 4.08768 6.49996 
362 1 1 0.711148 5.6477 4.94141 
364 1 1 0.0233294 5.59754 5.6351 
462 1 1 0.848794 5.56908 6.62935 
389 1 1 3.21073 6.45546 5.03601 
465 1 1 1.75745 4.79976 6.41537 
366 1 1 2.41072 5.65419 4.83523 
368 1 1 1.73669 5.58366 5.72 
372 1 1 3.33958 5.65786 5.78029 
466 1 1 2.49546 5.62682 6.46378 
373 1 1 4.85976 4.87888 4.84542 
371 1 1 4.07808 4.80576 5.78704 
470 1 1 3.98274 5.59815 6.55916 
489 1 1 3.04729 6.55368 6.51588 
375 1 1 5.67666 5.05889 5.47888 
376 1 1 4.74532 5.6638 5.56636 
374 1 1 5.36687 5.8137 4.71592 
380 1 1 6.43262 5.88042 5.49522 
493 1 1 4.78191 6.43103 6.40892 
478 1 1 7.0961 4.95352 5.617 
461 1 1 8.00637 4.87113 6.30651 
301 1 1 8.01856 0.136106 5.04649 
383 1 1 0.96116 6.34761 5.70973 
388 1 1 1.82567 7.2787 5.82001 
384 1 1 0.0314028 7.3896 5.59059 
385 1 1 1.62835 6.33449 4.89302 
405 1 1 1.56204 8.01942 6.52975 
386 1 1 2.33243 7.07952 4.92007 
387 1 1 2.32254 6.33775 5.74348 
392 1 1 3.04587 7.29772 5.65258 
391 1 1 3.89251 6.71421 5.82942 
390 1 1 3.92869 7.27771 4.78041 
396 1 1 4.82124 7.3263 5.65586 
395 1 1 5.59715 6.42303 5.64541 
494 1 1 5.71363 7.20954 6.43591 
400 1 1 6.31454 7.2517 5.69182 
381 1 1 0.0520285 6.44003 5.02223 
399 1 1 7.26341 6.5927 5.52215 
498 1 1 7.42946 7.2595 6.40666 
402 1 1 0.513116 0.965201 6.43135 
423 1 1 0.861746 1.48213 7.22182 
408 1 1 1.68952 0.831823 7.31203 
421 1 1 0.0101802 1.84708 6.60656 
425 1 1 1.65689 1.52051 6.50278 
412 1 1 3.43958 0.660568 7.3801 
410 1 1 4.03916 0.77836 6.40945 
409 1 1 3.27923 -0.0117719 6.3549 
9 1 1 3.17621 7.97233 0.192097 
411 1 1 4.16171 0.0254716 7.35226 
14 1 1 5.6754 0.893184 0.0162684 
416 1 1 5.017 0.796028 7.33079 
415 1 1 5.67607 7.99925 7.32612 
417 1 1 6.47373 8.09023 6.54043 
437 1 1 6.37206 1.65071 6.49933 
404 1 1 8.08029 0.799798 7.36858 
420 1 1 6.624 0.887688 7.18188 
418 1 1 7.38343 0.83242 6.49527 
422 1 1 0.971643 2.23741 6.49049 
428 1 1 1.62005 2.26457 7.41568 
426 1 1 2.44765 2.31577 6.5125 
427 1 1 2.39694 1.56613 7.25304 
445 1 1 1.87916 3.23946 6.35322 
429 1 1 3.21548 1.46229 6.43016 
432 1 1 3.25913 2.32404 7.34093 
430 1 1 3.92435 2.3226 6.60648 
431 1 1 4.22737 1.46763 7.23046 
451 1 1 3.83123 3.23904 7.35031 
436 1 1 4.83192 2.35754 7.31746 
34 1 1 5.66667 2.35027 0.195805 
435 1 1 5.62374 1.64983 7.3542 
455 1 1 5.67229 3.05114 7.26271 
440 1 1 6.43764 2.32256 7.23833 
438 1 1 7.27916 2.51237 6.68201 
439 1 1 7.34692 1.66652 7.32727 
424 1 1 0.0598247 2.48462 7.38725 
459 1 1 7.27337 3.399 7.15414 
457 1 1 6.52682 3.3538 6.44723 
442 1 1 0.994262 4.01539 6.33733 
443 1 1 0.871054 3.22537 7.15373 
444 1 1 0.249239 4.04994 7.03896 
463 1 1 1.08327 4.80833 7.08252 
448 1 1 1.72714 3.87774 7.15419 
446 1 1 2.59859 4.03319 6.46849 
447 1 1 2.52221 2.98693 7.14503 
467 1 1 2.47456 4.75829 7.25818 
469 1 1 3.26006 4.83957 6.51476 
449 1 1 3.28588 3.1391 6.43566 
450 1 1 4.13917 4.01092 6.46521 
452 1 1 3.34222 4.1263 7.3876 
69 1 1 3.28437 4.86873 0.201936 
73 1 1 4.93238 5.1703 0.012358 
471 1 1 4.12958 4.93394 7.29974 
473 1 1 4.9122 5.0799 6.36731 
456 1 1 4.84589 4.05716 7.44378 
460 1 1 6.43137 4.08006 7.26767 
475 1 1 5.61861 4.91785 7.22309 
41 1 1 7.91436 3.27736 0.0346768 
479 1 1 7.13568 5.02057 7.23009 
62 1 1 0.974937 5.54216 7.98143 
483 1 1 0.833204 6.535 7.32024 
468 1 1 1.7814 5.58301 7.22698 
66 1 1 2.33006 5.36876 0.0378657 
89 1 1 3.13838 6.35751 0.108765 
472 1 1 3.06524 5.60351 7.41018 
491 1 1 4.09876 6.50622 7.27416 
74 1 1 5.75419 5.80149 7.82895 
476 1 1 4.82729 5.79049 7.21625 
474 1 1 5.79825 5.74578 6.4712 
495 1 1 5.61748 6.61167 7.24683 
499 1 1 7.17656 5.65804 6.39607 
61 1 1 0.0833697 4.89422 0.0406125 
480 1 1 6.52724 5.89497 7.23229 
464 1 1 0.0481489 5.578 7.29266 
78 1 1 7.40372 6.58677 7.22974 
82 1 1 1.02221 7.40603 0.147692 
482 1 1 0.52367 7.14844 6.53193 
401 1 1 8.09516 0.0234097 6.61976 
403 1 1 0.765707 0.0281436 7.28321 
488 1 1 1.47388 7.34926 7.33245 
5 1 1 1.65625 0.112976 7.97978 
485 1 1 1.50198 6.47053 6.60421 
486 1 1 2.46942 7.35272 6.68114 
407 1 1 2.69991 0.0512888 7.26459 
487 1 1 2.28293 6.46807 7.30554 
93 1 1 4.84852 6.57223 0.118784 
490 1 1 3.84584 7.33916 6.72287 
492 1 1 3.30571 7.17076 7.50606 
496 1 1 4.8168 7.2386 7.2492 
94 1 1 5.71709 7.29673 8.11097 
97 1 1 6.57883 6.63232 8.0007 
497 1 1 6.53276 6.62271 6.41584 
81 1 1 0.124225 6.26966 0.050442 
17 1 1 6.47427 8.06939 7.96054 
481 1 1 7.91855 6.34042 6.35369 
484 1 1 0.245394 7.27127 7.53841 
500 1 1 6.46728 7.23798 7.22026 
419 1 1 7.22578 7.99132 7.18683 
