ITEM: TIMESTEP
41000
ITEM: NUMBER OF ATOMS
500
ITEM: BOX BOUNDS pp pp pp
0 8.07388
0 8.07388
0 8.07388
ITEM: ATOMS id type mass x y z 
23 1 1 0.863659 1.59853 0.963486 
8 1 1 1.73733 0.738228 1.07892 
3 1 1 0.76334 0.0341412 0.958238 
2 1 1 0.73389 0.895001 0.117924 
25 1 1 1.58455 1.50156 0.0895136 
106 1 1 2.49304 0.945208 1.65467 
6 1 1 2.43957 0.741514 0.168216 
12 1 1 3.28429 0.920315 0.727432 
10 1 1 4.09699 0.848147 0.183952 
110 1 1 3.95082 0.834747 1.49058 
16 1 1 4.83677 0.836384 1.02367 
20 1 1 6.41219 0.842698 0.785072 
15 1 1 5.64831 0.0840711 0.813866 
4 1 1 8.02324 0.769868 0.819454 
18 1 1 7.25947 0.827078 0.117566 
21 1 1 8.03108 1.61733 0.0673077 
37 1 1 6.56197 1.57976 0.0568966 
118 1 1 7.08161 0.810427 1.84789 
22 1 1 0.819222 2.26621 0.14709 
28 1 1 1.62052 2.48404 0.816069 
43 1 1 0.831172 3.20449 0.927764 
45 1 1 1.65988 3.26199 0.0724221 
29 1 1 3.27355 1.91673 0.0745834 
27 1 1 2.38564 1.77655 0.895715 
32 1 1 3.19481 2.54883 0.918023 
26 1 1 2.42065 2.58092 0.131652 
31 1 1 4.00016 1.66717 0.816749 
49 1 1 3.41442 3.39564 8.00667 
30 1 1 4.19989 2.38649 -0.0222957 
130 1 1 4.09672 2.63885 1.70989 
35 1 1 5.71492 1.6148 0.926249 
36 1 1 4.97443 2.42137 0.809304 
55 1 1 5.66413 3.23179 0.673759 
40 1 1 6.47895 2.39441 0.866297 
137 1 1 6.45973 1.65179 1.65783 
34 1 1 5.68484 2.3785 0.0589912 
39 1 1 7.16639 1.566 0.915079 
24 1 1 8.06142 2.42418 0.718654 
38 1 1 7.25465 2.31817 8.11677 
59 1 1 7.18008 3.23075 0.606912 
145 1 1 1.63387 3.19007 1.60954 
48 1 1 1.54194 3.96577 0.886212 
63 1 1 0.748576 4.91495 0.953955 
42 1 1 0.768493 4.04744 0.046962 
47 1 1 2.6101 3.37493 0.814922 
67 1 1 2.36678 4.87327 0.83573 
46 1 1 2.45757 4.03981 0.130162 
51 1 1 4.05787 3.09561 0.753684 
52 1 1 3.518 3.95937 0.74565 
56 1 1 4.80805 4.11453 0.773187 
153 1 1 4.91735 3.20999 1.58667 
44 1 1 0.0388969 3.93467 0.929897 
60 1 1 6.49178 4.05292 0.701759 
161 1 1 7.30471 4.80568 0.944379 
162 1 1 0.654768 5.64243 1.61452 
163 1 1 0.0231352 4.72197 1.62219 
69 1 1 3.15151 4.85266 8.02504 
68 1 1 1.61997 5.55335 0.800434 
66 1 1 2.17872 5.69658 7.90926 
72 1 1 3.22526 5.60409 0.778785 
65 1 1 1.61201 4.71581 0.12086 
71 1 1 4.0301 4.75982 0.550744 
173 1 1 4.75545 4.63277 1.67613 
70 1 1 4.14552 5.68669 8.05059 
89 1 1 3.22361 6.29951 0.0716571 
75 1 1 5.54917 4.78924 0.776197 
76 1 1 4.97918 5.65702 0.722921 
193 1 1 4.86593 6.43616 1.58248 
73 1 1 4.84836 4.88852 7.80535 
64 1 1 8.05394 5.61812 0.677681 
80 1 1 6.43053 5.74191 0.69567 
178 1 1 7.31702 5.75073 1.66479 
181 1 1 8.01145 6.55812 1.4593 
83 1 1 0.664468 6.42072 0.662036 
182 1 1 0.691216 7.30574 1.69001 
88 1 1 1.34168 7.29681 0.823862 
85 1 1 1.62794 6.5648 0.0993838 
5 1 1 1.55403 0.0835288 0.105525 
7 1 1 2.34244 7.948 0.80366 
87 1 1 2.30194 6.32524 0.847443 
185 1 1 1.46743 6.48936 1.60182 
186 1 1 2.37824 7.15029 1.64931 
9 1 1 3.191 8.02914 0.161359 
11 1 1 4.00848 0.0822962 0.861513 
91 1 1 3.98844 6.33671 0.856918 
92 1 1 3.01861 7.18454 0.675253 
90 1 1 3.91847 7.24292 0.179631 
95 1 1 5.58847 6.51587 0.743162 
96 1 1 4.83381 7.19605 0.717487 
113 1 1 4.88974 7.99072 1.47203 
194 1 1 5.56798 7.18304 1.56436 
19 1 1 7.2464 0.0317416 0.846214 
99 1 1 7.24737 6.52386 0.726746 
100 1 1 6.51268 7.28187 0.624887 
84 1 1 8.00002 7.39214 0.883852 
198 1 1 7.24073 7.32761 1.65813 
102 1 1 0.731847 0.892685 1.86806 
104 1 1 7.95801 0.829305 2.45985 
125 1 1 1.60906 1.64665 1.62422 
108 1 1 1.66822 0.831117 2.53411 
129 1 1 3.21632 1.64265 1.59476 
107 1 1 2.44622 8.05448 2.50258 
112 1 1 3.23759 0.812756 2.36482 
116 1 1 4.98592 1.08137 2.43763 
109 1 1 3.01823 8.03955 1.56315 
111 1 1 3.98209 -0.0544681 2.12702 
114 1 1 5.64821 0.871638 1.7621 
120 1 1 6.51328 0.898395 2.66519 
217 1 1 6.42826 8.05261 3.29844 
121 1 1 0.142036 1.77195 1.64658 
139 1 1 7.16682 1.68986 2.52237 
218 1 1 7.33179 0.713468 3.28671 
123 1 1 0.87005 1.58507 2.60097 
122 1 1 0.858378 2.49717 1.7519 
222 1 1 0.932666 2.32181 3.48475 
128 1 1 1.72977 2.56115 2.5137 
126 1 1 2.41472 2.53262 1.67814 
127 1 1 2.54355 1.66781 2.49057 
132 1 1 3.37604 2.36013 2.30649 
149 1 1 3.13457 3.2988 1.82756 
131 1 1 3.97672 1.52337 2.43221 
133 1 1 4.63477 1.6766 1.62687 
151 1 1 4.10859 3.4728 2.50301 
233 1 1 4.94766 1.78713 3.33979 
230 1 1 4.04808 2.3755 3.11963 
136 1 1 4.85417 2.31255 2.362 
135 1 1 5.81832 1.77557 2.47449 
134 1 1 5.63968 2.53759 1.53742 
140 1 1 6.33555 2.6805 2.31685 
138 1 1 7.33143 2.41931 1.61828 
124 1 1 7.99668 2.37424 2.52447 
221 1 1 0.0482532 1.61712 3.18738 
165 1 1 1.58405 4.82878 1.56276 
142 1 1 0.881452 3.88878 1.81253 
143 1 1 0.73891 3.20492 2.66308 
148 1 1 1.49233 4.08936 2.66228 
147 1 1 2.28744 3.42 2.53294 
146 1 1 2.37943 4.08162 1.58646 
169 1 1 3.10762 4.81137 1.56466 
246 1 1 2.46184 4.09459 3.39653 
167 1 1 2.37727 4.74242 2.35392 
152 1 1 3.2711 3.98656 2.70349 
150 1 1 3.9208 3.99209 1.66538 
171 1 1 3.89571 4.67201 2.45084 
269 1 1 3.27993 4.8908 3.42095 
154 1 1 5.67276 3.96899 1.44843 
157 1 1 6.51907 3.3019 1.45759 
156 1 1 4.8882 4.06084 2.57642 
155 1 1 5.42404 3.17794 2.58039 
160 1 1 6.47398 3.81301 2.48667 
141 1 1 8.09138 3.23078 1.89071 
158 1 1 7.31366 4.03262 1.64325 
144 1 1 8.03141 3.96627 2.43286 
159 1 1 7.25398 3.17779 2.41326 
242 1 1 0.761288 4.78005 2.40366 
164 1 1 8.00161 5.60922 2.46145 
166 1 1 2.4208 5.56111 1.68527 
168 1 1 1.56499 5.52509 2.39516 
172 1 1 3.31154 5.48451 2.38976 
187 1 1 2.4408 6.43975 2.42553 
170 1 1 3.99654 5.4194 1.59825 
270 1 1 4.12993 5.71587 3.19731 
176 1 1 4.80706 5.64457 2.26956 
177 1 1 6.48299 4.68219 1.73377 
174 1 1 5.85376 5.54454 1.47074 
175 1 1 5.71349 4.68752 2.44369 
180 1 1 6.54349 5.58834 2.4954 
277 1 1 6.19568 4.90549 3.40881 
195 1 1 5.7261 6.29924 2.30179 
197 1 1 6.48135 6.33873 1.59789 
179 1 1 7.31552 4.67463 2.51944 
261 1 1 7.91315 4.92514 3.35963 
278 1 1 7.22933 5.73541 3.38399 
105 1 1 1.68844 0.0044387 1.71962 
103 1 1 0.908493 8.0202 2.44079 
183 1 1 0.574571 6.37719 2.34774 
282 1 1 0.744402 7.15909 3.10804 
205 1 1 1.59164 7.97983 3.19173 
189 1 1 3.1577 6.30882 1.62469 
188 1 1 1.58954 7.19187 2.4076 
192 1 1 3.24847 7.28079 2.23691 
191 1 1 3.95673 6.52222 2.28893 
190 1 1 3.90141 7.20111 1.41524 
196 1 1 4.79954 7.31924 2.39222 
290 1 1 4.13044 7.22394 3.18341 
117 1 1 6.36222 0.0821062 1.69636 
115 1 1 5.54113 8.02079 2.24306 
200 1 1 6.52651 7.32077 2.44285 
297 1 1 6.37989 6.49871 3.02626 
101 1 1 0.016139 0.0112953 1.92032 
119 1 1 7.32788 0.000332883 2.57626 
184 1 1 -0.00133093 7.24186 2.37917 
199 1 1 7.21097 6.60059 2.38652 
298 1 1 7.13761 7.29704 3.26455 
202 1 1 0.897821 0.6481 3.18741 
325 1 1 1.70134 1.53593 4.87681 
203 1 1 0.848173 7.92286 4.0512 
223 1 1 0.763624 1.43702 3.8875 
225 1 1 1.74353 1.64807 3.29763 
208 1 1 1.77332 0.756141 3.97891 
206 1 1 2.66181 0.756947 3.28639 
227 1 1 2.53415 1.48162 3.9996 
229 1 1 3.34974 1.64872 3.30042 
212 1 1 3.31492 0.767167 4.23672 
210 1 1 4.23804 0.920245 3.27303 
211 1 1 4.07095 8.08449 3.95456 
231 1 1 4.09468 1.56558 4.17677 
329 1 1 3.13747 1.50689 4.86634 
214 1 1 5.52742 0.914312 3.30364 
213 1 1 4.90804 -0.00313843 3.19947 
216 1 1 4.86463 0.783272 4.18948 
314 1 1 5.69133 0.791324 4.80756 
235 1 1 5.57845 1.68436 4.32549 
237 1 1 6.34507 1.58722 3.36661 
313 1 1 4.558 7.92408 4.82209 
215 1 1 5.4643 7.97107 4.17797 
204 1 1 0.0492839 0.675321 4.01729 
220 1 1 6.53452 0.816195 4.02671 
239 1 1 7.39747 1.62549 3.88163 
219 1 1 7.28074 8.00927 4.09765 
318 1 1 7.21053 0.797351 4.71683 
228 1 1 1.76849 2.30062 4.13925 
322 1 1 0.988197 2.43834 4.82744 
224 1 1 0.10616 2.31453 4.02158 
226 1 1 2.49755 2.38689 3.25379 
232 1 1 3.36034 2.41994 4.13881 
247 1 1 2.49023 3.14541 4.15559 
249 1 1 3.21017 2.9914 3.03146 
251 1 1 3.86006 3.30826 4.03682 
236 1 1 4.74999 2.47512 4.28291 
349 1 1 3.13198 3.27403 4.93324 
234 1 1 5.81894 2.46761 3.28185 
334 1 1 5.56947 2.49539 4.95323 
353 1 1 4.57672 3.35227 4.83497 
337 1 1 6.46546 1.63669 4.88978 
240 1 1 6.58521 2.42687 4.02839 
238 1 1 7.12023 2.48524 3.18557 
338 1 1 7.3367 2.43788 4.78718 
259 1 1 7.27867 3.19668 4.02448 
241 1 1 8.04893 3.25473 3.31232 
245 1 1 1.68977 3.19831 3.43582 
244 1 1 0.706185 3.98149 3.36569 
345 1 1 1.65805 3.21219 4.7667 
243 1 1 0.829157 3.18225 4.00111 
358 1 1 7.97313 4.14399 3.89229 
342 1 1 0.69686 4.09279 4.81406 
265 1 1 1.50447 4.81928 3.27151 
365 1 1 1.45484 4.81065 4.9093 
248 1 1 1.54984 4.09294 4.08262 
267 1 1 2.18093 4.87627 4.09446 
252 1 1 3.47884 4.21011 4.12997 
346 1 1 2.34164 4.01651 4.77136 
250 1 1 4.10244 4.07265 3.25456 
271 1 1 4.00411 5.01085 4.15039 
273 1 1 4.84752 4.92172 3.13352 
256 1 1 4.6467 4.14774 4.14377 
253 1 1 4.73182 3.0851 3.50083 
255 1 1 5.67535 3.26476 4.10134 
254 1 1 5.73408 3.91751 3.20115 
258 1 1 6.99938 4.11051 3.31673 
257 1 1 6.48187 3.22752 3.36892 
260 1 1 6.36915 4.08582 4.20913 
379 1 1 7.23981 3.95378 4.84982 
262 1 1 0.815597 5.58786 3.08417 
263 1 1 0.73971 4.89884 3.95516 
264 1 1 0.054134 5.74629 3.89652 
266 1 1 2.43826 5.6158 3.2484 
285 1 1 1.50956 6.43688 3.08977 
268 1 1 1.46381 5.64129 3.88721 
272 1 1 3.26301 5.72626 4.10008 
291 1 1 4.07008 6.34083 4.05733 
276 1 1 4.91942 5.61785 4.07819 
274 1 1 5.58598 5.66353 3.03842 
275 1 1 5.43216 4.72178 4.0737 
280 1 1 6.38998 5.87814 3.9126 
295 1 1 5.68807 6.58927 4.0123 
374 1 1 5.74432 5.73177 5.00114 
279 1 1 7.14963 4.86728 4.0715 
378 1 1 7.2713 5.68776 4.87748 
299 1 1 7.32825 6.46792 4.07552 
377 1 1 6.5015 4.88167 4.91011 
283 1 1 0.656844 6.5901 4.06472 
284 1 1 7.97565 7.23718 3.99465 
289 1 1 3.31986 6.39059 3.12133 
288 1 1 1.5776 7.16674 3.94975 
287 1 1 2.34552 6.40477 4.01228 
207 1 1 2.4212 8.01842 3.94262 
286 1 1 2.39249 7.19898 3.24698 
292 1 1 3.29319 7.15553 3.83835 
386 1 1 2.26916 7.26764 4.76164 
293 1 1 4.93459 6.49584 3.14322 
209 1 1 3.43004 -0.010207 3.1713 
296 1 1 4.8235 7.14409 3.97 
294 1 1 5.78641 7.3275 3.08025 
300 1 1 6.49951 7.2377 3.98702 
281 1 1 7.86682 6.49077 3.14545 
201 1 1 0.156837 8.00505 3.21314 
317 1 1 6.37567 8.01333 4.80587 
398 1 1 7.11437 7.23903 4.84439 
302 1 1 0.959267 0.789914 4.80582 
308 1 1 1.74214 0.769307 5.56718 
402 1 1 0.904932 0.81197 6.49024 
304 1 1 7.94032 0.85762 5.45709 
323 1 1 0.880395 1.54553 5.70532 
401 1 1 7.99953 0.142651 6.43877 
305 1 1 1.62406 8.01602 4.77643 
306 1 1 2.39801 0.497643 4.8066 
309 1 1 3.28127 7.8668 4.71198 
327 1 1 2.41695 1.55655 5.69769 
307 1 1 2.5109 7.96365 5.68426 
429 1 1 3.2471 1.57293 6.6084 
312 1 1 3.14529 0.823556 5.62761 
310 1 1 4.04119 0.856793 4.97952 
331 1 1 4.01391 1.46817 5.76093 
311 1 1 3.9651 7.90708 5.7059 
409 1 1 3.21637 7.90727 6.60244 
333 1 1 4.81207 1.69943 4.98118 
316 1 1 4.72864 0.596137 5.65867 
320 1 1 6.36075 0.810305 5.57346 
335 1 1 5.65842 1.5506 5.7728 
414 1 1 5.64476 0.68458 6.44521 
321 1 1 0.162248 1.61892 4.86111 
421 1 1 8.05348 1.57174 6.41525 
319 1 1 7.152 0.0492888 5.59775 
418 1 1 7.19719 0.791207 6.42391 
339 1 1 7.17302 1.60946 5.59723 
341 1 1 0.166244 3.20069 4.7129 
328 1 1 1.8857 2.46655 5.90641 
422 1 1 0.960332 2.41875 6.40061 
326 1 1 2.53214 2.47138 4.91429 
449 1 1 3.24704 3.17885 6.49015 
332 1 1 3.20329 2.38887 5.73557 
426 1 1 2.49254 2.43094 6.65655 
330 1 1 3.87771 2.30393 4.96401 
351 1 1 4.05802 3.13806 5.70347 
430 1 1 3.95602 2.31791 6.50405 
336 1 1 4.85276 2.40042 5.7493 
434 1 1 5.62454 2.43544 6.41078 
355 1 1 5.53178 3.26872 5.647 
433 1 1 4.76071 1.58371 6.46022 
457 1 1 6.51525 3.2066 6.32688 
324 1 1 0.0941526 2.32801 5.52711 
340 1 1 6.47047 2.37374 5.67367 
437 1 1 6.52302 1.69343 6.55459 
438 1 1 7.33146 2.2744 6.48256 
343 1 1 0.972299 3.14533 5.55567 
344 1 1 0.0637836 4.09741 5.67874 
363 1 1 0.768706 4.91776 5.60483 
348 1 1 1.4708 4.0558 5.5636 
347 1 1 2.35882 3.44175 5.57656 
367 1 1 2.40744 4.683 5.50569 
352 1 1 3.30056 4.15617 5.77341 
369 1 1 3.25973 4.89383 4.92726 
350 1 1 3.99081 4.16673 4.96073 
371 1 1 4.06091 4.9924 5.78735 
356 1 1 4.87325 3.94837 5.87339 
354 1 1 5.49403 4.12098 5.05026 
360 1 1 6.47463 4.02206 5.62681 
454 1 1 5.87413 4.14697 6.6047 
361 1 1 8.07037 4.97377 4.78124 
357 1 1 6.37767 3.17654 4.97841 
359 1 1 7.35301 3.29899 5.67037 
478 1 1 7.32845 4.96609 5.64944 
362 1 1 0.852079 5.68108 4.81214 
462 1 1 0.855246 5.6079 6.46081 
364 1 1 0.0455683 5.65897 5.65438 
469 1 1 3.19207 5.00687 6.55635 
368 1 1 1.57013 5.71115 5.66324 
366 1 1 2.26305 5.52301 4.92143 
466 1 1 2.45616 5.58803 6.44703 
393 1 1 4.83743 6.41832 4.85234 
372 1 1 3.22113 5.68315 5.58711 
370 1 1 4.10893 5.63272 4.96523 
376 1 1 4.82079 5.76206 5.80226 
470 1 1 4.04266 5.76697 6.50296 
373 1 1 4.83036 4.87202 4.8682 
477 1 1 6.55333 4.86398 6.32033 
375 1 1 5.69841 4.9935 5.76315 
397 1 1 6.50267 6.44425 4.84292 
395 1 1 5.67921 6.50815 5.60407 
380 1 1 6.48495 5.60367 5.65176 
382 1 1 0.759389 7.24805 4.91608 
381 1 1 0.0637535 6.39818 4.86206 
303 1 1 0.639466 8.05556 5.64196 
383 1 1 0.904158 6.48568 5.75601 
384 1 1 7.97284 7.25921 5.53662 
481 1 1 0.0951659 6.53526 6.37914 
387 1 1 2.33895 6.46922 5.54324 
388 1 1 1.62546 7.33868 5.66098 
385 1 1 1.63814 6.41652 4.70357 
485 1 1 1.73547 6.61658 6.39018 
389 1 1 3.25528 6.39061 4.83649 
392 1 1 3.08098 7.12132 5.45852 
390 1 1 3.96834 7.09461 4.90509 
391 1 1 3.97115 6.54207 5.79922 
396 1 1 4.89275 7.23114 5.60491 
489 1 1 3.06201 6.64842 6.39 
490 1 1 4.04434 7.29682 6.58977 
394 1 1 5.66357 7.24282 4.82314 
315 1 1 5.62384 0.0583683 5.62747 
400 1 1 6.43504 7.30751 5.64729 
494 1 1 5.61687 7.34662 6.46103 
497 1 1 6.35375 6.55956 6.40991 
301 1 1 8.10372 8.01376 4.72456 
399 1 1 7.23111 6.56489 5.62889 
498 1 1 7.26299 7.41871 6.38754 
425 1 1 1.62824 1.64555 6.43294 
403 1 1 0.875546 0.0974012 7.40915 
404 1 1 0.245058 0.879444 7.24853 
423 1 1 0.922918 1.71417 7.37577 
406 1 1 2.55159 0.714928 6.53455 
408 1 1 1.61784 0.86888 7.28849 
412 1 1 3.14005 0.766141 7.57249 
427 1 1 2.36317 1.66589 7.31035 
407 1 1 2.24945 0.000831407 7.40325 
410 1 1 4.03271 0.698999 6.51548 
413 1 1 4.81812 8.05251 6.57558 
431 1 1 4.04658 1.4117 7.39425 
411 1 1 4.05458 0.0193208 7.36409 
13 1 1 4.82832 0.0697951 0.067954 
14 1 1 5.69281 0.911086 0.0682643 
416 1 1 4.94022 0.820837 7.33018 
435 1 1 5.62702 1.57836 7.20239 
415 1 1 5.59581 8.04456 7.23438 
17 1 1 6.37954 0.117195 7.9648 
420 1 1 6.52758 0.80473 7.30025 
419 1 1 7.32623 0.0534236 7.18578 
439 1 1 7.39854 1.44543 7.31203 
41 1 1 0.198918 3.16273 -0.0406039 
428 1 1 1.66437 2.44217 7.3316 
441 1 1 0.00758273 3.21794 6.46926 
443 1 1 0.8528 3.07322 7.3646 
445 1 1 1.46643 3.34421 6.47453 
447 1 1 2.56544 3.18603 7.40112 
432 1 1 3.29505 2.40726 7.33108 
451 1 1 4.12868 3.16137 7.31634 
453 1 1 4.75636 3.21347 6.56976 
436 1 1 4.86185 2.21692 7.30537 
33 1 1 4.8264 1.66887 0.0641624 
455 1 1 5.60568 3.10131 7.32253 
440 1 1 6.43929 2.42467 7.25462 
57 1 1 6.47834 3.12941 8.01808 
424 1 1 0.071583 2.33485 7.3274 
459 1 1 7.27986 2.97804 7.23448 
461 1 1 0.092781 4.89672 6.54065 
442 1 1 0.746536 4.0891 6.44156 
444 1 1 0.159273 4.01694 7.32949 
61 1 1 0.0658197 4.81986 0.0900517 
463 1 1 0.992077 4.76886 7.19585 
446 1 1 2.39697 4.14184 6.36522 
448 1 1 1.58483 3.99552 7.36894 
465 1 1 1.62024 4.94946 6.26889 
50 1 1 4.17608 4.09577 7.94032 
450 1 1 4.18122 4.082 6.56282 
452 1 1 3.25775 4.22698 7.26777 
471 1 1 4.02907 4.90508 7.17156 
53 1 1 4.88068 3.14872 8.0109 
456 1 1 5.04349 4.01271 7.28439 
54 1 1 5.74557 3.87354 8.00187 
475 1 1 5.77089 5.00868 7.17062 
460 1 1 6.53637 3.81183 7.34603 
58 1 1 7.42399 4.08616 0.163351 
458 1 1 7.3871 4.18201 6.52035 
62 1 1 0.973077 5.66691 8.0293 
464 1 1 0.0188576 5.61659 7.38983 
81 1 1 7.97915 6.48937 7.9801 
483 1 1 0.756055 6.59616 7.21517 
467 1 1 2.39862 4.67347 7.35477 
468 1 1 1.70972 5.78883 7.02691 
93 1 1 4.87769 6.35073 8.07063 
472 1 1 3.16431 5.67926 7.35556 
476 1 1 4.83603 5.77112 7.17349 
491 1 1 3.84846 6.42481 7.32791 
74 1 1 5.69936 5.69572 0.0524293 
473 1 1 4.88175 4.98004 6.43825 
474 1 1 5.78161 5.73541 6.41245 
493 1 1 4.9782 6.51714 6.43943 
499 1 1 7.49642 5.74066 6.44907 
77 1 1 6.44216 4.8067 7.99262 
479 1 1 7.22615 4.78606 7.25026 
480 1 1 6.62378 5.77704 7.02236 
79 1 1 7.23218 5.72128 7.94407 
482 1 1 0.938157 7.39374 6.43777 
82 1 1 0.693499 7.37169 8.03826 
484 1 1 0.121478 7.45128 7.17365 
486 1 1 2.38111 7.44258 6.55676 
405 1 1 1.69291 0.112187 6.32144 
487 1 1 2.37683 6.54731 7.28303 
488 1 1 1.49083 7.28396 7.21157 
86 1 1 2.25836 7.27327 0.051436 
492 1 1 3.19829 7.29347 7.4349 
496 1 1 4.82257 7.34977 7.47672 
495 1 1 5.67797 6.50598 7.25293 
94 1 1 5.63238 7.43805 0.0529389 
98 1 1 7.39205 7.26209 7.91365 
1 1 1 8.0006 0.11531 0.0244151 
417 1 1 6.41166 8.01331 6.48191 
97 1 1 6.44582 6.46336 7.95676 
78 1 1 7.27774 6.59616 7.15318 
500 1 1 6.4096 7.2732 7.4518 
