ITEM: TIMESTEP
20000
ITEM: NUMBER OF ATOMS
500
ITEM: BOX BOUNDS pp pp pp
0 8.07388
0 8.07388
0 8.07388
ITEM: ATOMS id type mass x y z 
102 1 1 0.888084 0.760385 1.87598 
101 1 1 0.00174113 0.0125071 1.76769 
4 1 1 0.0972868 0.728574 0.964532 
23 1 1 0.794733 1.77845 0.837676 
3 1 1 1.01181 0.135123 1.04581 
8 1 1 1.59609 1.04282 1.15158 
12 1 1 3.27669 0.945503 0.741668 
10 1 1 3.97909 0.959391 8.04603 
31 1 1 4.08773 1.74334 0.818925 
33 1 1 4.8406 1.5902 8.03908 
29 1 1 3.35064 1.75664 7.9825 
16 1 1 4.97305 0.847177 0.974199 
15 1 1 5.85055 0.116225 0.865126 
20 1 1 6.56118 0.731615 0.649419 
17 1 1 6.67427 0.0734706 8.02046 
118 1 1 7.34264 0.789738 1.67314 
18 1 1 7.32508 0.893796 8.02058 
121 1 1 0.154157 1.62163 1.63135 
122 1 1 0.629854 2.58919 1.62042 
24 1 1 8.01974 2.37397 0.789431 
22 1 1 0.699219 2.33314 0.00374981 
43 1 1 0.763486 3.23321 0.741278 
141 1 1 7.94662 3.33951 1.48872 
27 1 1 2.42952 1.6217 0.946243 
28 1 1 1.64274 2.45862 0.936727 
125 1 1 1.59049 1.78765 1.83723 
32 1 1 3.27634 2.47791 0.877679 
47 1 1 2.46304 3.12324 0.674513 
30 1 1 4.17661 2.3495 8.03681 
51 1 1 4.00233 3.25237 0.771824 
36 1 1 4.84864 2.37869 0.8186 
35 1 1 5.89004 1.52979 0.794261 
34 1 1 5.52956 2.30305 8.06268 
134 1 1 5.62427 2.23934 1.56093 
39 1 1 7.35541 1.3983 0.826781 
40 1 1 6.51266 2.35639 0.834393 
138 1 1 7.37498 2.44046 1.51371 
137 1 1 6.5417 1.6046 1.59112 
44 1 1 0.0793744 4.11002 0.812098 
63 1 1 0.869112 4.8287 0.960959 
41 1 1 7.98209 3.07245 7.97382 
165 1 1 1.60452 4.57603 1.78176 
42 1 1 0.869973 3.88017 7.97036 
61 1 1 8.0241 4.69816 8.03019 
45 1 1 1.54737 3.11736 8.02357 
48 1 1 1.53326 3.90665 0.62558 
169 1 1 3.17756 4.7893 1.55146 
69 1 1 3.21167 4.77664 0.0707769 
146 1 1 2.48486 4.05402 1.44158 
46 1 1 2.45104 3.87989 0.0577985 
52 1 1 3.2433 4.06915 0.739872 
49 1 1 3.16935 3.16616 7.93808 
150 1 1 4.02891 4.04227 1.49826 
50 1 1 4.00684 3.99957 7.98573 
56 1 1 4.79414 4.02225 0.68246 
53 1 1 4.82549 3.18418 0.00789414 
55 1 1 5.64638 3.12842 0.77535 
54 1 1 5.69232 3.92967 0.0606631 
60 1 1 6.57314 4.07279 0.76206 
157 1 1 6.39544 3.23665 1.50347 
59 1 1 7.17385 3.17028 0.685607 
158 1 1 7.191 4.15423 1.51719 
58 1 1 7.33392 3.981 0.0566204 
68 1 1 1.64817 5.591 1.00715 
163 1 1 7.97101 5.00854 1.54875 
62 1 1 0.877027 5.58466 0.0332237 
67 1 1 2.4058 4.78837 0.74708 
66 1 1 2.67934 5.7172 0.212598 
166 1 1 2.40714 5.57844 1.59749 
72 1 1 3.3402 5.59442 0.946616 
71 1 1 4.05781 4.73732 0.758502 
70 1 1 3.84942 5.60606 0.0537488 
193 1 1 4.86794 6.47488 1.58218 
76 1 1 4.78133 5.74029 0.807766 
73 1 1 4.8957 4.76979 0.0326845 
75 1 1 5.75963 4.72031 0.669272 
74 1 1 5.71642 5.64125 0.105334 
95 1 1 5.73465 6.41815 0.788331 
197 1 1 6.45993 6.61738 1.61405 
161 1 1 7.3617 4.88417 0.800866 
80 1 1 6.56226 5.58714 0.77012 
64 1 1 8.04394 5.76735 0.809007 
79 1 1 7.25692 5.57204 0.00759087 
177 1 1 6.38715 4.86077 1.57512 
178 1 1 7.20536 5.76106 1.74098 
77 1 1 6.62273 4.70071 8.04482 
83 1 1 0.865713 6.50636 0.862399 
84 1 1 0.124467 7.49757 0.925568 
182 1 1 0.856414 7.1823 1.73069 
1 1 1 0.0980483 0.115332 0.14597 
185 1 1 1.52998 6.39553 1.70945 
9 1 1 3.20115 0.128542 0.171654 
87 1 1 2.48531 6.42135 0.991276 
88 1 1 1.65517 7.10114 0.864262 
7 1 1 2.39771 0.31424 0.99846 
92 1 1 3.12121 7.34726 0.873594 
86 1 1 2.51401 7.29784 0.167669 
11 1 1 4.10563 0.207678 0.719303 
91 1 1 4.00924 6.52106 0.94014 
96 1 1 5.06473 7.27493 0.742009 
100 1 1 6.6449 7.29538 0.846656 
117 1 1 6.62536 0.00582948 1.62634 
194 1 1 5.78137 7.28276 1.54562 
93 1 1 4.72212 6.49474 0.0400893 
81 1 1 0.0266939 6.37082 8.10475 
19 1 1 7.29513 0.0340603 0.85771 
99 1 1 7.25187 6.4202 0.922462 
98 1 1 7.43606 7.30172 0.287087 
103 1 1 0.808741 8.02423 2.59961 
123 1 1 0.706069 1.75028 2.59747 
108 1 1 1.58365 0.875125 2.64841 
201 1 1 8.0643 8.04294 3.2626 
106 1 1 2.48219 1.07519 1.79086 
105 1 1 1.64834 0.107739 1.89272 
127 1 1 2.44889 1.83887 2.53803 
129 1 1 3.39106 1.6784 1.57587 
110 1 1 4.27204 0.782424 1.73887 
112 1 1 3.51753 0.696421 2.47727 
131 1 1 4.10331 1.56118 2.35317 
114 1 1 5.94556 0.86394 1.65399 
133 1 1 4.72597 1.75565 1.59449 
116 1 1 5.09997 0.799984 2.33922 
135 1 1 5.75803 1.62428 2.3744 
214 1 1 5.75484 0.942126 3.4444 
213 1 1 4.9142 8.06425 3.22014 
104 1 1 0.0342718 0.92259 2.50013 
120 1 1 6.40546 0.816905 2.62545 
218 1 1 7.17014 0.801807 3.43537 
119 1 1 7.16176 0.128291 2.67387 
124 1 1 7.83157 2.42667 2.40137 
126 1 1 2.41927 2.57136 1.71684 
128 1 1 1.41333 2.70845 2.45404 
147 1 1 2.30601 3.3089 2.45883 
145 1 1 1.49647 3.34174 1.59166 
153 1 1 4.87306 3.29312 1.43543 
149 1 1 3.24408 3.27792 1.58439 
132 1 1 3.27654 2.37224 2.35715 
130 1 1 4.30723 2.63164 1.81277 
151 1 1 3.8943 3.49449 2.37445 
136 1 1 4.93828 2.47763 2.5521 
140 1 1 6.45501 2.41694 2.28472 
234 1 1 5.69276 2.43357 3.24729 
139 1 1 7.27235 1.54977 2.45419 
159 1 1 7.16458 3.22524 2.4812 
142 1 1 0.624886 4.08579 1.64083 
143 1 1 0.379368 3.29328 2.39573 
242 1 1 0.742018 4.81886 2.35762 
244 1 1 0.670109 4.11126 3.22661 
148 1 1 1.47822 3.85095 2.45376 
167 1 1 2.40075 4.91354 2.39582 
246 1 1 2.47207 4.02509 3.29156 
269 1 1 3.1893 4.85059 3.20316 
152 1 1 3.12877 4.03873 2.413 
250 1 1 4.05043 4.22282 3.34789 
173 1 1 4.93966 4.98772 1.39261 
171 1 1 3.98187 4.71482 2.22423 
156 1 1 4.78753 4.1481 2.25145 
155 1 1 5.62847 3.23944 2.24235 
154 1 1 5.6876 4.0412 1.49516 
254 1 1 5.55975 3.96317 2.95928 
144 1 1 7.89477 4.21068 2.29837 
160 1 1 6.45255 4.07907 2.39233 
241 1 1 7.96083 3.24094 3.41874 
258 1 1 7.22528 4.0597 3.27628 
162 1 1 0.607006 5.6895 1.635 
164 1 1 7.97012 5.71782 2.40967 
183 1 1 0.756478 6.45476 2.41193 
262 1 1 0.824324 5.62958 3.32789 
168 1 1 1.45278 5.58992 2.32429 
266 1 1 2.42365 5.68517 3.11009 
172 1 1 3.32439 5.56982 2.47595 
189 1 1 3.27206 6.33371 1.66502 
170 1 1 4.05928 5.68638 1.69818 
176 1 1 4.79696 5.40758 2.54345 
270 1 1 4.01342 5.59098 3.25358 
175 1 1 5.60788 4.7665 2.27948 
174 1 1 5.6881 5.73727 1.53864 
274 1 1 5.63633 5.5891 3.2765 
261 1 1 7.95936 4.9578 3.16833 
179 1 1 7.08943 4.95726 2.37632 
180 1 1 6.22436 5.58594 2.35303 
181 1 1 8.04027 6.59492 1.50721 
188 1 1 1.62967 7.2003 2.47458 
184 1 1 0.133799 7.21254 2.43102 
107 1 1 2.53513 0.26467 2.51369 
186 1 1 2.56975 7.33869 1.72982 
187 1 1 2.46897 6.47115 2.35211 
286 1 1 2.54548 7.26874 3.02727 
109 1 1 3.36909 0.103351 1.65868 
113 1 1 4.90799 8.04451 1.52625 
192 1 1 3.49381 7.37205 2.37115 
111 1 1 4.33583 0.0758371 2.40742 
191 1 1 3.97506 6.39116 2.51218 
190 1 1 4.09964 7.429 1.45133 
195 1 1 5.59545 6.31158 2.66725 
115 1 1 5.65007 -0.00212621 2.29522 
196 1 1 4.77846 7.17593 2.52891 
297 1 1 6.43106 6.36872 3.17963 
294 1 1 5.63722 7.2144 3.17611 
198 1 1 7.35149 7.25925 1.66719 
199 1 1 7.17228 6.40561 2.45345 
200 1 1 6.52026 7.29386 2.42553 
298 1 1 7.2876 7.31847 3.16375 
217 1 1 6.32829 0.179966 3.33538 
202 1 1 0.671197 0.882225 3.39207 
208 1 1 1.50452 0.858491 4.00285 
225 1 1 1.43377 1.83591 3.28973 
206 1 1 2.39563 0.82907 3.3224 
209 1 1 3.19712 8.03904 3.23628 
227 1 1 2.38451 1.7022 3.80153 
306 1 1 2.49184 0.68497 4.84175 
229 1 1 3.38202 1.67208 3.25057 
212 1 1 3.14172 0.766391 3.9455 
210 1 1 4.25878 0.868203 3.08566 
233 1 1 4.899 1.62343 3.05255 
216 1 1 4.71512 0.839346 4.08681 
215 1 1 5.57502 8.03207 4.10229 
204 1 1 0.0684197 0.754597 4.22597 
220 1 1 6.39708 0.828574 4.34272 
239 1 1 7.21285 1.40729 4.32881 
318 1 1 7.22264 0.570772 4.9043 
245 1 1 1.62176 3.4054 3.40891 
223 1 1 0.818933 1.74305 4.0914 
222 1 1 0.629747 2.52889 3.2614 
221 1 1 7.95062 1.70494 3.18656 
224 1 1 8.04198 2.34571 4.03402 
321 1 1 8.02661 1.57166 4.92157 
226 1 1 2.22584 2.52669 3.1288 
228 1 1 1.45535 2.60309 3.98213 
232 1 1 3.11618 2.45205 4.0504 
231 1 1 4.15072 1.71329 4.04815 
230 1 1 4.1857 2.52036 3.25348 
330 1 1 4.07583 2.36345 4.97123 
237 1 1 6.32233 1.67626 3.40275 
235 1 1 5.60562 1.81182 4.01076 
236 1 1 4.85168 2.43947 4.10341 
238 1 1 7.11944 2.43819 3.31158 
240 1 1 6.38343 2.49863 4.1857 
341 1 1 7.91626 3.20647 5.0102 
243 1 1 0.637014 3.23743 4.27296 
263 1 1 0.760444 4.87758 4.05948 
248 1 1 1.60111 4.17901 4.02696 
265 1 1 1.64149 4.89934 3.07317 
342 1 1 0.612852 4.06522 4.91837 
247 1 1 2.34279 3.30194 4.13744 
369 1 1 3.19276 4.79986 4.80734 
267 1 1 2.41705 4.84077 3.9637 
253 1 1 4.71397 3.38003 3.33228 
251 1 1 3.94408 3.32844 4.0007 
249 1 1 3.23369 3.28026 3.29857 
252 1 1 3.27303 4.07312 3.98612 
256 1 1 4.81082 4.07671 4.12967 
257 1 1 6.40378 3.26299 3.34897 
255 1 1 5.61559 3.27263 3.92284 
354 1 1 5.57171 3.94026 4.96737 
275 1 1 5.65077 4.7754 3.92979 
358 1 1 8.00881 3.98563 4.21249 
260 1 1 6.42806 4.05516 3.97447 
259 1 1 7.22845 3.29771 4.20572 
379 1 1 7.2217 4.25005 4.88783 
362 1 1 0.775534 5.71452 4.71629 
281 1 1 7.84797 6.45268 3.21238 
283 1 1 0.797866 6.55754 4.02161 
385 1 1 1.63874 6.44469 4.7711 
268 1 1 1.64786 5.65608 3.96326 
272 1 1 3.13247 5.63173 3.99936 
389 1 1 3.38103 6.4513 4.77132 
271 1 1 4.10003 4.95754 4.15211 
291 1 1 4.05258 6.39925 4.01675 
273 1 1 4.86344 4.70844 3.36402 
277 1 1 6.41058 4.77553 3.17778 
276 1 1 4.89236 5.70464 4.15647 
280 1 1 6.41807 5.60399 4.18943 
373 1 1 4.95615 4.87422 4.949 
374 1 1 5.643 5.76064 4.97321 
279 1 1 7.27599 4.7492 4.01378 
278 1 1 7.13549 5.59851 3.36015 
264 1 1 8.00129 5.67514 4.09118 
381 1 1 8.04463 6.32661 4.87808 
361 1 1 0.0974818 4.96036 4.87555 
285 1 1 1.59484 6.46168 3.13509 
205 1 1 1.66044 8.08271 3.10262 
203 1 1 0.830768 8.00923 3.97831 
282 1 1 0.813404 7.21864 3.29484 
288 1 1 1.62068 7.23277 4.03811 
382 1 1 0.716545 7.1635 4.90959 
289 1 1 3.25381 6.44642 3.16055 
207 1 1 2.19161 8.07743 4.02017 
287 1 1 2.36622 6.44365 3.96569 
292 1 1 3.20783 7.226 4.05263 
293 1 1 4.73926 6.45929 3.25306 
290 1 1 3.96622 7.14395 3.28527 
211 1 1 4.00967 2.38155e-05 3.93912 
390 1 1 4.04121 7.27503 4.75981 
393 1 1 4.84329 6.56272 4.75554 
295 1 1 5.66868 6.37058 3.99772 
296 1 1 4.80935 7.36946 3.98039 
397 1 1 6.60655 6.34397 4.84526 
394 1 1 5.75928 7.17805 5.04997 
219 1 1 7.11189 8.00478 3.98527 
299 1 1 7.23558 6.5198 4.01591 
284 1 1 0.00115496 7.22822 4.14347 
300 1 1 6.46252 7.16908 3.79678 
302 1 1 0.877308 0.731974 4.85228 
323 1 1 0.898593 1.64631 5.6264 
325 1 1 1.58328 1.57425 4.89263 
304 1 1 0.0676226 0.706516 5.54149 
308 1 1 1.62354 0.699678 5.69283 
329 1 1 3.22163 1.53464 4.69129 
312 1 1 3.2914 0.729186 5.63637 
327 1 1 2.41839 1.52128 5.58095 
310 1 1 4.07784 0.895634 4.86197 
316 1 1 4.91155 0.73464 5.77525 
333 1 1 5.02083 1.76719 4.90364 
314 1 1 5.46841 0.704977 4.91815 
320 1 1 6.42259 0.781757 5.52234 
335 1 1 5.61632 1.51443 5.84273 
315 1 1 5.65012 7.91118 5.84708 
301 1 1 8.0647 7.98736 4.84944 
317 1 1 6.43698 7.93577 4.81992 
319 1 1 7.36514 8.0384 5.73479 
337 1 1 6.20185 1.636 4.99355 
339 1 1 7.32718 1.40768 5.61365 
322 1 1 0.767258 2.40621 4.9339 
324 1 1 0.00924065 2.45632 5.71905 
422 1 1 0.788616 2.47706 6.52568 
425 1 1 1.66669 1.6491 6.26465 
328 1 1 1.48995 2.53582 5.75149 
326 1 1 2.26501 2.26136 4.67455 
347 1 1 2.50734 3.13799 5.52974 
353 1 1 4.71884 3.26091 4.94521 
433 1 1 4.80044 1.6187 6.52128 
331 1 1 4.09953 1.61606 5.68975 
349 1 1 3.22818 3.14027 4.79378 
332 1 1 3.22652 2.31817 5.45804 
430 1 1 4.03625 2.42938 6.46633 
336 1 1 4.81705 2.42429 5.73735 
334 1 1 5.5584 2.59791 4.83735 
340 1 1 6.37099 2.3589 5.75121 
338 1 1 7.2069 2.29756 5.12539 
359 1 1 7.13426 3.17826 5.74082 
441 1 1 8.07491 3.25811 6.48664 
438 1 1 7.20106 2.21378 6.33721 
365 1 1 1.55728 4.92489 4.79967 
343 1 1 0.902834 3.38779 5.60301 
363 1 1 0.926842 5.0595 5.62119 
348 1 1 1.518 4.18872 5.56944 
442 1 1 0.826654 3.99012 6.54657 
346 1 1 2.38289 4.02142 4.87957 
345 1 1 1.59188 3.21564 4.83311 
367 1 1 2.19324 4.9466 5.52234 
445 1 1 1.60992 3.24776 6.43739 
446 1 1 2.35323 4.08851 6.33245 
352 1 1 3.24487 3.86162 5.58918 
469 1 1 3.15015 4.75363 6.12961 
351 1 1 4.00299 3.17639 5.67186 
350 1 1 3.9705 4.02694 4.8616 
356 1 1 4.82812 4.15097 5.8444 
357 1 1 6.34205 3.31057 4.87401 
355 1 1 5.63242 3.21487 5.79334 
454 1 1 5.7414 4.0229 6.52995 
344 1 1 0.0602167 4.02832 5.73722 
360 1 1 6.4957 3.98724 5.69574 
478 1 1 7.3196 4.96545 5.7386 
458 1 1 7.19417 3.98272 6.47168 
477 1 1 6.51956 4.80582 6.57328 
368 1 1 1.61919 5.81171 5.50239 
462 1 1 0.874462 5.777 6.31676 
364 1 1 0.115456 5.63567 5.67079 
481 1 1 0.115938 6.38399 6.45887 
366 1 1 2.48743 5.70484 4.78139 
372 1 1 3.05161 5.65491 5.65902 
387 1 1 2.44721 6.43792 5.53234 
370 1 1 4.20974 5.75003 4.99388 
371 1 1 4.02509 4.83527 5.47696 
391 1 1 4.05798 6.69168 5.56915 
376 1 1 4.82176 5.57817 5.73204 
375 1 1 5.62243 4.87045 5.80261 
380 1 1 6.40243 5.56891 5.84823 
395 1 1 5.59857 6.38518 5.74305 
377 1 1 6.30594 4.70347 4.86407 
378 1 1 7.28244 5.56956 4.87901 
499 1 1 7.25094 5.61232 6.60835 
303 1 1 0.780473 7.8927 5.68328 
383 1 1 0.839375 6.39465 5.50567 
309 1 1 3.3334 0.0282159 4.7637 
305 1 1 1.49803 8.00258 4.84391 
489 1 1 3.10673 6.44992 6.43484 
307 1 1 2.34434 7.93438 5.5309 
386 1 1 2.51577 7.25498 4.70054 
388 1 1 1.66817 7.19581 5.49299 
392 1 1 3.19704 7.38835 5.5455 
409 1 1 3.34658 7.97095 6.56404 
311 1 1 4.10146 7.99968 5.61443 
490 1 1 4.04023 7.05296 6.47432 
396 1 1 4.96532 7.18066 5.62939 
313 1 1 4.84529 7.94376 4.92516 
400 1 1 6.48279 7.31296 5.75434 
398 1 1 7.3205 7.2567 4.7924 
399 1 1 7.19506 6.47586 5.79482 
384 1 1 7.95003 7.17611 5.61817 
498 1 1 7.38939 7.14342 6.5916 
2 1 1 0.947961 0.871928 0.231129 
402 1 1 0.997416 0.81124 6.50659 
403 1 1 1.01155 0.106663 7.32968 
25 1 1 1.65762 1.76976 0.0503596 
408 1 1 1.58986 1.0001 7.40741 
6 1 1 2.48548 0.855582 0.116135 
406 1 1 2.48806 0.511715 6.32985 
412 1 1 3.22762 0.748955 7.23991 
413 1 1 4.71885 7.95263 6.53181 
410 1 1 4.05102 0.771008 6.50288 
416 1 1 4.94537 0.654097 7.32042 
13 1 1 5.07452 7.9576 8.0574 
411 1 1 4.08986 8.02374 7.4167 
14 1 1 5.66475 0.750958 0.0769329 
414 1 1 5.59084 0.694976 6.58227 
420 1 1 6.54845 0.75465 7.34023 
415 1 1 5.75067 0.00978898 7.30196 
417 1 1 6.36751 0.133223 6.49226 
418 1 1 7.41452 0.823276 6.62529 
404 1 1 0.15027 0.840603 7.35191 
419 1 1 7.56738 0.0983533 7.45259 
21 1 1 0.0607597 1.48344 0.0987872 
423 1 1 0.864816 1.76059 7.2413 
428 1 1 1.75418 2.25751 7.06971 
424 1 1 7.99212 2.30732 7.28823 
26 1 1 2.37972 2.44335 7.92921 
426 1 1 2.47225 2.38337 6.2553 
427 1 1 2.47281 1.36467 6.99202 
447 1 1 2.30232 3.28743 7.23014 
429 1 1 3.23153 1.54763 6.31167 
431 1 1 3.9353 1.4811 7.22068 
432 1 1 3.16077 2.39174 7.12387 
436 1 1 4.80222 2.44273 7.25509 
37 1 1 6.43523 1.57842 8.00411 
434 1 1 5.56437 2.39375 6.38807 
435 1 1 5.62884 1.68692 7.2817 
440 1 1 6.51046 2.36822 7.0346 
437 1 1 6.49625 1.37103 6.41969 
421 1 1 0.0224416 1.5095 6.5188 
38 1 1 7.20206 2.20703 7.9433 
439 1 1 7.20572 1.61197 7.1699 
459 1 1 7.13354 3.19156 7.32371 
443 1 1 0.741272 3.06729 7.38797 
465 1 1 1.5581 4.94547 6.45613 
463 1 1 0.891293 4.93812 7.31456 
65 1 1 1.71659 4.89994 0.0732184 
448 1 1 1.63075 4.1687 7.2886 
467 1 1 2.44766 4.92305 7.01077 
452 1 1 3.11814 4.08263 7.22346 
449 1 1 3.33122 3.35603 6.53068 
450 1 1 4.07426 4.07946 6.48912 
451 1 1 4.00183 3.1394 7.26058 
471 1 1 3.83772 4.80239 7.23347 
57 1 1 6.5358 3.08662 0.00394304 
457 1 1 6.42748 3.2659 6.51452 
453 1 1 4.76007 3.20669 6.49184 
456 1 1 4.92852 3.86078 7.34401 
455 1 1 5.64355 3.13022 7.18785 
475 1 1 5.59959 4.7073 7.27253 
444 1 1 0.0156742 3.90881 7.31804 
461 1 1 0.246631 4.92701 6.53196 
460 1 1 6.57771 4.09395 7.27464 
479 1 1 7.43196 4.88688 7.20618 
485 1 1 1.56232 6.41403 6.55498 
468 1 1 1.8 5.70945 7.36516 
85 1 1 1.59797 6.51459 8.06507 
483 1 1 0.814592 6.41025 7.2696 
466 1 1 2.30824 5.74839 6.35717 
487 1 1 2.44562 6.60974 7.46137 
89 1 1 3.18893 6.50896 0.22795 
470 1 1 3.93842 5.6066 6.3691 
473 1 1 4.75844 4.86755 6.60978 
472 1 1 3.08482 5.63065 7.26092 
493 1 1 4.91325 6.41658 6.40281 
476 1 1 4.7273 5.50556 7.32991 
491 1 1 3.87917 6.40155 7.25382 
97 1 1 6.43352 6.31007 8.06264 
474 1 1 5.63702 5.63271 6.51752 
464 1 1 0.11204 5.68994 7.29964 
480 1 1 6.42171 5.61131 7.27765 
78 1 1 7.3139 6.42539 7.46993 
482 1 1 0.652787 7.23427 6.42567 
405 1 1 1.58216 7.78674 6.31558 
82 1 1 0.837276 7.37577 0.0823959 
488 1 1 1.64752 7.37147 7.33784 
5 1 1 1.77111 0.0149556 0.27989 
486 1 1 2.37936 7.26071 6.50536 
407 1 1 2.37025 0.0916044 7.34315 
492 1 1 3.26491 7.19041 7.29069 
90 1 1 3.95639 7.25151 0.052366 
496 1 1 4.76225 7.13236 7.38544 
495 1 1 5.55605 6.31033 7.37923 
497 1 1 6.53841 6.4962 6.64971 
94 1 1 5.83576 7.2626 8.05406 
494 1 1 5.53253 7.27026 6.75031 
401 1 1 0.178638 0.0640636 6.41102 
484 1 1 0.0761897 7.19637 7.2995 
500 1 1 6.50532 7.37243 7.24334 
