ITEM: TIMESTEP
33000
ITEM: NUMBER OF ATOMS
500
ITEM: BOX BOUNDS pp pp pp
0 8.07388
0 8.07388
0 8.07388
ITEM: ATOMS id type mass x y z 
2 1 1 0.993646 1.01903 0.0722161 
4 1 1 -0.0125063 0.939655 0.752268 
23 1 1 0.84073 1.54476 0.881622 
121 1 1 0.0224116 1.59899 1.6554 
25 1 1 1.74277 1.58347 0.266886 
8 1 1 1.65324 0.591651 0.939392 
6 1 1 2.5453 0.909975 8.03037 
27 1 1 2.66363 1.74715 0.787946 
106 1 1 2.51933 0.954324 1.54912 
129 1 1 3.3553 1.71693 1.64036 
12 1 1 3.26238 0.773816 0.908229 
110 1 1 4.06045 0.899667 1.67603 
10 1 1 3.91225 0.927177 8.06421 
13 1 1 4.71659 0.182777 8.01158 
16 1 1 4.86371 0.755233 0.928048 
14 1 1 5.47175 0.989274 0.116597 
20 1 1 6.49572 0.678663 0.901661 
15 1 1 5.60106 0.0298055 0.580872 
18 1 1 7.22026 0.903092 0.102244 
21 1 1 0.0413251 1.64397 8.05989 
28 1 1 1.52942 2.48596 0.857207 
43 1 1 0.806769 3.21572 0.798646 
24 1 1 0.120866 2.38087 0.845758 
41 1 1 0.130705 3.26466 0.0183287 
32 1 1 3.28933 2.52518 0.829439 
26 1 1 2.34895 2.49512 0.0820279 
29 1 1 3.23574 1.63281 8.05808 
31 1 1 4.04398 1.55559 0.754973 
130 1 1 4.04512 2.40058 1.79271 
51 1 1 4.10406 3.2364 0.860887 
30 1 1 3.97524 2.37142 0.0234149 
35 1 1 5.6599 1.70414 0.930788 
36 1 1 4.73151 2.39163 0.877285 
40 1 1 6.41822 2.56121 0.976549 
39 1 1 7.38141 1.71021 0.806951 
138 1 1 7.24773 2.46112 1.68644 
37 1 1 6.3935 1.66664 0.116465 
38 1 1 7.31468 2.40047 0.0112106 
48 1 1 1.48104 4.11548 0.691663 
44 1 1 0.0441424 3.98204 0.758472 
165 1 1 1.56109 4.90642 1.39241 
47 1 1 2.40748 3.35215 0.700153 
46 1 1 2.48243 4.16413 0.0275375 
67 1 1 2.36334 4.8938 0.743494 
52 1 1 3.2942 3.83346 0.825859 
49 1 1 3.2471 3.26164 7.97438 
56 1 1 4.68875 4.04625 0.862694 
50 1 1 4.04438 3.99225 8.01027 
55 1 1 5.49468 3.21524 0.890122 
157 1 1 6.51919 3.20052 1.78046 
54 1 1 5.5707 3.8579 0.00910145 
57 1 1 6.38346 3.35556 0.213434 
59 1 1 7.33793 3.08906 0.907789 
60 1 1 6.47573 3.96913 1.111 
158 1 1 7.39902 3.92783 1.6423 
58 1 1 7.21988 4.18523 8.05232 
63 1 1 0.749433 4.90638 0.692357 
162 1 1 0.796242 5.79702 1.48278 
62 1 1 0.912518 5.76492 0.0168254 
83 1 1 0.835218 6.56308 0.648441 
85 1 1 1.5794 6.51174 7.92284 
61 1 1 8.0143 4.84101 7.96337 
65 1 1 1.64469 4.98944 -0.0231151 
185 1 1 1.72098 6.5217 1.46184 
68 1 1 1.56508 5.78029 0.720308 
166 1 1 2.34072 5.62431 1.47328 
87 1 1 2.37579 6.45925 0.698232 
66 1 1 2.52744 5.7658 0.00898149 
72 1 1 3.23007 5.71944 0.797203 
71 1 1 4.08038 4.93862 0.789739 
70 1 1 4.12937 5.66583 0.0481444 
76 1 1 4.79943 5.74282 0.902498 
73 1 1 4.97269 4.84123 0.226853 
75 1 1 5.84607 4.76254 0.955682 
177 1 1 6.54929 4.80953 1.74186 
74 1 1 5.76245 5.69563 8.00478 
80 1 1 6.51013 5.55024 0.800002 
161 1 1 7.31711 4.75054 0.876254 
64 1 1 7.98652 5.56263 0.800295 
99 1 1 7.27948 6.29804 0.917853 
81 1 1 7.84053 6.33008 0.0614601 
3 1 1 0.787159 8.03122 0.764486 
105 1 1 1.73314 8.01823 1.65491 
182 1 1 0.845949 7.23332 1.48078 
7 1 1 2.58078 0.0338065 0.927731 
88 1 1 1.71783 7.24529 0.690705 
109 1 1 3.11883 8.02488 1.75066 
92 1 1 3.30362 7.3444 0.934639 
11 1 1 4.09658 8.02438 0.922786 
91 1 1 4.02136 6.45627 0.83185 
93 1 1 4.92156 6.53425 0.138839 
95 1 1 5.7774 6.36686 0.706565 
96 1 1 4.89271 7.3467 0.807134 
17 1 1 6.44845 -0.000228089 0.0620114 
100 1 1 6.39927 7.12409 0.828606 
117 1 1 6.32049 7.8726 1.55702 
97 1 1 6.60504 6.64445 8.02211 
94 1 1 5.65661 7.20212 7.87014 
181 1 1 8.02367 6.48707 1.6422 
19 1 1 7.31095 8.04044 0.894894 
84 1 1 -0.0018751 7.2998 0.886116 
198 1 1 7.17652 7.19129 1.59538 
102 1 1 0.787067 0.805517 1.56115 
108 1 1 1.73873 0.803247 2.37975 
104 1 1 8.01376 0.679427 2.47488 
125 1 1 1.6204 1.61173 1.60215 
112 1 1 3.42483 0.941444 2.62903 
107 1 1 2.46762 7.93179 2.58866 
206 1 1 2.33112 0.973417 3.37019 
111 1 1 4.12156 0.0167271 2.54743 
113 1 1 5.00934 8.06935 1.60075 
209 1 1 3.23959 8.01954 3.35285 
114 1 1 5.7391 0.826752 1.57841 
116 1 1 4.91877 0.831767 2.33657 
115 1 1 5.75973 8.04167 2.48867 
214 1 1 5.58721 0.844829 3.15657 
137 1 1 6.63593 1.52536 1.60896 
120 1 1 6.52482 0.899068 2.53638 
118 1 1 7.42214 0.779061 1.63864 
139 1 1 7.30147 1.62683 2.50588 
141 1 1 7.95037 3.09274 1.73511 
122 1 1 0.694185 2.37716 1.55824 
123 1 1 0.668185 1.45495 2.44064 
128 1 1 1.65643 2.41171 2.4573 
222 1 1 0.808892 2.2317 3.18255 
143 1 1 0.920487 3.12935 2.25847 
229 1 1 3.16283 1.62748 3.45332 
126 1 1 2.33645 2.5141 1.59497 
127 1 1 2.51041 1.54097 2.50925 
132 1 1 3.21203 2.36254 2.6408 
149 1 1 3.28802 3.09359 1.76586 
147 1 1 2.49315 3.14076 2.52428 
153 1 1 4.79083 3.24266 1.63833 
131 1 1 4.19806 1.63289 2.47667 
230 1 1 3.9947 2.28813 3.3056 
133 1 1 4.87575 1.70785 1.68762 
136 1 1 4.89728 2.48198 2.444 
134 1 1 5.60305 2.49999 1.68289 
135 1 1 5.70563 1.6492 2.50847 
234 1 1 5.64827 2.4836 3.22577 
233 1 1 4.88891 1.63357 3.24506 
124 1 1 0.12872 2.33845 2.38426 
140 1 1 6.47939 2.26137 2.24284 
142 1 1 0.701803 3.93591 1.60662 
145 1 1 1.63227 3.30494 1.46263 
244 1 1 0.984873 3.92395 3.26103 
146 1 1 2.58221 3.8509 1.61906 
148 1 1 1.62803 3.98921 2.18905 
167 1 1 2.27799 4.72954 2.20849 
169 1 1 3.07204 4.818 1.45281 
152 1 1 3.19757 3.9869 2.50802 
265 1 1 1.76702 4.78168 3.31714 
150 1 1 3.88204 4.25621 1.61382 
151 1 1 4.07092 3.20167 2.68686 
154 1 1 5.69985 4.19068 1.69883 
173 1 1 4.91791 4.85591 1.55882 
156 1 1 4.91943 3.99188 2.44052 
155 1 1 5.70502 3.24572 2.44002 
160 1 1 6.65093 3.87596 2.62377 
144 1 1 0.0699285 3.97313 2.46392 
159 1 1 7.13944 3.07506 2.54397 
258 1 1 7.32938 4.05851 3.52502 
179 1 1 7.23495 4.79181 2.59147 
163 1 1 0.0900013 4.80898 1.72009 
242 1 1 0.936731 4.68991 2.61837 
183 1 1 0.647724 6.54997 2.35284 
168 1 1 1.5993 5.58161 2.39612 
262 1 1 0.836082 5.55773 3.15857 
285 1 1 1.54617 6.38133 3.01756 
172 1 1 3.14499 5.48111 2.29192 
266 1 1 2.40328 5.61571 2.99794 
187 1 1 2.66362 6.41579 2.28725 
171 1 1 4.10524 4.80535 2.54553 
170 1 1 3.93211 5.51799 1.65093 
176 1 1 4.9137 5.49858 2.31901 
189 1 1 3.3804 6.57252 1.5742 
174 1 1 5.53634 5.78654 1.46091 
175 1 1 5.70876 4.85106 2.46398 
180 1 1 6.40936 5.73982 2.41878 
178 1 1 7.25884 5.56211 1.78262 
164 1 1 0.0572187 5.65419 2.34344 
103 1 1 0.965011 -0.0106242 2.47517 
282 1 1 0.904844 7.4248 3.35166 
184 1 1 0.200638 7.47881 2.38636 
281 1 1 0.0532793 6.25883 3.16712 
188 1 1 1.6902 7.16039 2.32666 
186 1 1 2.40585 7.28954 1.51255 
192 1 1 3.23887 7.27109 2.62921 
193 1 1 4.71652 6.43313 1.78708 
190 1 1 3.98574 7.3989 1.8097 
191 1 1 3.99739 6.29208 2.51266 
196 1 1 4.83145 7.33177 2.4128 
213 1 1 4.95484 8.04524 3.23277 
195 1 1 5.48897 6.43158 2.43929 
197 1 1 6.39111 6.2531 1.55265 
194 1 1 5.53346 7.24993 1.62849 
200 1 1 6.32226 7.19194 2.41067 
294 1 1 5.62922 7.17271 3.14859 
119 1 1 7.28033 8.00917 2.61357 
101 1 1 0.146856 8.03384 1.51659 
199 1 1 7.10493 6.50597 2.44941 
202 1 1 0.702428 0.712622 3.29315 
205 1 1 1.72903 0.139723 3.22819 
204 1 1 8.06648 0.656517 4.0017 
208 1 1 1.54386 0.775107 4.1741 
207 1 1 2.36227 8.02829 4.07379 
210 1 1 4.17746 0.63445 3.41432 
212 1 1 3.15111 0.677536 4.03151 
216 1 1 4.99242 0.969264 4.14199 
231 1 1 3.92057 1.56331 4.06179 
211 1 1 3.98529 8.04185 4.13233 
309 1 1 3.29542 7.96102 4.9313 
235 1 1 5.59953 1.77477 4.02643 
337 1 1 6.60836 1.60953 4.74938 
215 1 1 5.66863 0.0326016 4.03973 
314 1 1 5.74037 0.837141 4.8012 
317 1 1 6.60524 7.99665 4.85146 
217 1 1 6.31543 8.03094 3.26596 
220 1 1 6.50613 0.686562 4.18574 
218 1 1 7.20433 0.74521 3.29508 
239 1 1 7.1786 1.54233 3.9758 
301 1 1 8.03799 7.87365 4.65175 
223 1 1 0.757446 1.60769 4.11296 
243 1 1 0.740191 3.34325 4.22453 
225 1 1 1.44976 1.47792 3.33472 
329 1 1 3.08135 1.55552 4.87053 
228 1 1 1.60537 2.52386 4.14746 
226 1 1 2.41407 2.36361 3.24468 
227 1 1 2.35296 1.64813 4.21498 
232 1 1 3.19128 2.36678 4.21878 
330 1 1 4.16745 2.50531 4.9348 
251 1 1 3.84579 3.07924 4.10357 
236 1 1 4.83375 2.40724 4.12553 
249 1 1 3.21044 3.22797 3.25876 
240 1 1 6.48926 2.34831 4.13556 
334 1 1 5.60523 2.48984 4.81986 
255 1 1 5.63491 3.18109 4.05967 
357 1 1 6.52115 3.24232 4.77828 
221 1 1 8.03001 1.49896 3.28863 
237 1 1 6.44029 1.71653 3.1601 
238 1 1 7.31466 2.49902 3.37816 
224 1 1 0.0228947 2.46366 3.99041 
341 1 1 0.0472982 3.22629 4.93493 
261 1 1 0.0960475 4.81955 3.14353 
241 1 1 7.99667 3.27934 3.35787 
342 1 1 0.835819 4.2527 5.06722 
263 1 1 0.928504 4.81684 4.10006 
345 1 1 1.64359 3.21122 4.96151 
245 1 1 1.52526 3.03197 3.28273 
247 1 1 2.41202 3.26652 3.98002 
248 1 1 1.72549 4.03661 4.1439 
246 1 1 2.39535 3.99163 3.13733 
269 1 1 3.17596 4.86517 3.13469 
252 1 1 3.13289 3.99514 3.96332 
250 1 1 4.06696 3.99209 3.25429 
373 1 1 4.75629 4.94815 4.67252 
350 1 1 4.05199 4.04471 4.85674 
253 1 1 4.79048 3.06014 3.41083 
273 1 1 4.86645 4.7475 3.14827 
257 1 1 6.36011 3.17512 3.3691 
256 1 1 4.79552 4.04355 3.92403 
254 1 1 5.71477 4.00163 3.21449 
354 1 1 5.67701 3.97499 4.76509 
260 1 1 6.46977 3.99968 4.05114 
259 1 1 7.21908 3.21879 3.9987 
358 1 1 0.0471956 4.1676 4.02309 
279 1 1 7.26674 4.83392 4.26573 
379 1 1 7.25407 3.99317 4.84367 
264 1 1 8.02251 5.52778 3.89948 
362 1 1 0.656556 5.66705 4.79107 
267 1 1 2.61238 4.88316 4.09605 
268 1 1 1.831 5.61363 3.95476 
270 1 1 4.02863 5.52654 3.10666 
272 1 1 3.2827 5.6258 3.94814 
271 1 1 3.8935 4.80179 4.00432 
393 1 1 4.72679 6.48398 4.89822 
276 1 1 4.63762 5.6681 3.99852 
275 1 1 5.54445 4.91328 4.03382 
274 1 1 5.48278 5.61741 3.27518 
295 1 1 5.4254 6.51602 4.11844 
277 1 1 6.41178 5.00753 3.18978 
280 1 1 6.38139 5.52898 4.05519 
278 1 1 7.40782 5.58819 3.16734 
299 1 1 7.36413 6.25129 4.06527 
378 1 1 7.08513 5.6751 4.95092 
201 1 1 8.05935 7.97524 3.39897 
283 1 1 0.922459 6.30485 3.89287 
203 1 1 0.809922 0.0390554 4.04796 
284 1 1 0.0535646 7.04342 3.92875 
286 1 1 2.26701 7.19232 3.27135 
287 1 1 2.59812 6.41156 4.01999 
288 1 1 1.65525 7.07696 4.18478 
305 1 1 1.6946 0.0863803 4.92809 
289 1 1 3.26817 6.38355 3.27001 
291 1 1 4.00699 6.58904 4.04564 
292 1 1 3.24543 7.34157 4.08491 
290 1 1 4.00532 7.25987 3.30324 
296 1 1 4.81353 7.33482 3.99254 
293 1 1 4.73676 6.36581 3.24304 
300 1 1 6.33338 7.30532 4.09361 
394 1 1 5.53265 7.42673 4.7754 
297 1 1 6.2963 6.2769 3.37718 
219 1 1 7.18516 8.00231 4.00033 
298 1 1 7.16323 7.10704 3.4771 
398 1 1 7.1855 7.10888 4.78755 
302 1 1 0.633398 0.656404 4.8118 
304 1 1 7.93365 0.774583 5.60415 
323 1 1 0.645512 1.4112 5.72401 
421 1 1 7.89125 1.55968 6.57185 
308 1 1 1.57617 0.770154 5.70204 
306 1 1 2.41256 0.812282 4.97789 
327 1 1 2.38551 1.6328 5.63146 
307 1 1 2.32734 0.0244203 5.70715 
425 1 1 1.55339 1.48492 6.46246 
313 1 1 4.81232 0.102478 4.78337 
310 1 1 4.0699 0.839316 4.80612 
312 1 1 3.21251 0.840948 5.68848 
311 1 1 4.1433 0.0396627 5.59221 
333 1 1 4.83983 1.7267 4.8646 
316 1 1 4.94172 0.838761 5.51585 
320 1 1 6.53466 0.749735 5.52359 
318 1 1 7.3075 0.751631 4.76369 
321 1 1 8.03007 1.53727 4.79402 
339 1 1 7.35232 1.66608 5.58958 
319 1 1 7.38949 7.93435 5.55963 
322 1 1 0.751265 2.38698 5.06096 
422 1 1 0.874568 2.43326 6.49024 
328 1 1 1.62383 2.25367 5.74475 
326 1 1 2.25174 2.3817 4.94273 
325 1 1 1.55513 1.56697 4.82067 
347 1 1 2.60579 3.43793 5.85367 
331 1 1 4.01323 1.61666 5.56791 
332 1 1 3.27619 2.45088 5.47884 
353 1 1 4.87137 3.31915 4.78472 
429 1 1 3.14797 1.68975 6.45035 
335 1 1 5.70014 1.58649 5.52027 
336 1 1 4.98505 2.53278 5.59508 
340 1 1 6.48502 2.53305 5.55794 
324 1 1 0.0564784 2.299 5.82734 
338 1 1 7.40928 2.46654 4.74343 
359 1 1 7.39973 3.24037 5.6081 
438 1 1 6.98629 2.36176 6.49938 
361 1 1 0.0861567 4.86807 4.98567 
343 1 1 0.684932 3.21076 5.76849 
363 1 1 0.906902 5.11998 5.66169 
348 1 1 1.75027 4.07083 5.7566 
365 1 1 1.74501 4.81453 4.9192 
465 1 1 1.69272 4.82292 6.46156 
346 1 1 2.47199 4.06345 4.88318 
367 1 1 2.75966 4.86257 5.62391 
446 1 1 2.64475 4.31642 6.4779 
369 1 1 3.29984 4.78156 4.81586 
351 1 1 4.135 3.23631 5.60493 
349 1 1 3.20339 3.36747 4.93372 
352 1 1 3.44833 4.13615 5.72599 
450 1 1 4.16194 4.01162 6.56872 
371 1 1 4.23295 4.83747 5.59585 
449 1 1 3.30413 3.17415 6.48175 
377 1 1 6.27414 4.76451 4.79374 
355 1 1 5.65718 3.27467 5.48212 
356 1 1 4.84657 4.0284 5.59163 
375 1 1 5.50514 5.0098 5.5142 
344 1 1 8.05675 4.02453 5.73071 
360 1 1 6.51755 4.03285 5.56635 
478 1 1 7.15086 4.85465 5.58956 
368 1 1 1.7629 5.66512 5.83146 
364 1 1 7.99188 5.86285 5.81304 
481 1 1 7.96182 6.50675 6.5426 
366 1 1 2.72455 5.77911 4.96033 
466 1 1 2.59044 5.47746 6.48944 
389 1 1 3.1477 6.66933 5.13596 
370 1 1 3.90883 5.68447 4.82361 
469 1 1 3.54424 4.89046 6.57438 
372 1 1 3.34839 5.74125 5.94079 
470 1 1 4.25719 5.71556 6.46294 
391 1 1 4.10329 6.60019 5.65087 
489 1 1 3.16238 6.53516 6.58259 
374 1 1 5.55864 5.62444 4.74358 
376 1 1 4.803 5.76102 5.62058 
493 1 1 4.8429 6.56367 6.40681 
395 1 1 5.59277 6.57516 5.44452 
497 1 1 6.41723 6.53342 6.46826 
380 1 1 6.25786 5.7842 5.51704 
399 1 1 7.12623 6.49676 5.67663 
383 1 1 0.893634 6.19635 5.54651 
303 1 1 0.829685 8.09073 5.89631 
382 1 1 0.832791 7.10445 4.94254 
385 1 1 1.69734 6.19866 4.875 
387 1 1 2.48934 6.41413 5.8185 
388 1 1 1.63583 7.08887 5.76282 
386 1 1 2.40432 7.37607 4.91993 
392 1 1 3.18649 7.46301 5.81784 
405 1 1 1.55818 8.07406 6.59989 
390 1 1 4.01578 7.27836 4.80497 
396 1 1 4.90734 7.31163 5.57598 
490 1 1 4.11274 7.51737 6.40734 
397 1 1 6.31376 6.35367 4.66612 
315 1 1 5.65771 0.0092771 5.65433 
494 1 1 5.44396 7.43628 6.47684 
381 1 1 8.08158 6.52034 4.85387 
384 1 1 0.0208936 7.11225 5.68423 
400 1 1 6.37086 7.39659 5.77525 
1 1 1 0.0181169 0.0303249 0.00995575 
402 1 1 0.730482 0.82232 6.65079 
404 1 1 7.86596 0.815021 7.37617 
408 1 1 1.59437 0.869244 7.30308 
406 1 1 2.39967 0.836195 6.45071 
427 1 1 2.31023 1.58828 7.24972 
409 1 1 3.24358 0.0877828 6.46677 
407 1 1 2.3649 0.127418 7.39055 
9 1 1 3.15614 0.0483238 0.0985567 
410 1 1 3.88449 1.00206 6.47324 
412 1 1 3.10569 0.829928 7.22034 
416 1 1 4.71963 0.976934 7.34263 
411 1 1 3.88583 0.16837 7.24163 
413 1 1 4.82271 0.201784 6.31674 
414 1 1 5.55469 0.857131 6.48923 
437 1 1 6.5011 1.48617 6.29544 
415 1 1 5.44004 8.08027 7.1839 
420 1 1 6.41505 0.851679 7.36704 
418 1 1 7.18871 0.847532 6.50659 
417 1 1 6.27826 0.0882231 6.48631 
22 1 1 0.861958 2.35562 0.0703606 
423 1 1 0.967305 1.66591 7.29001 
443 1 1 0.89533 3.3339 7.34707 
445 1 1 1.67901 3.23266 6.34372 
428 1 1 1.66383 2.56164 7.17792 
426 1 1 2.40829 2.50924 6.27891 
432 1 1 3.14003 2.46085 7.39964 
33 1 1 4.80859 1.86709 0.0937754 
431 1 1 3.97203 1.80303 7.15895 
430 1 1 4.04712 2.39467 6.14472 
34 1 1 5.69661 2.49537 0.126622 
433 1 1 4.68394 1.57392 6.39349 
435 1 1 5.57915 1.66637 7.31971 
436 1 1 4.92152 2.51614 7.20901 
434 1 1 5.71619 2.25593 6.42553 
440 1 1 6.33506 2.5383 7.30635 
441 1 1 7.92662 3.22677 6.67725 
457 1 1 6.37177 3.16641 6.46 
439 1 1 7.13085 1.70498 7.45922 
424 1 1 0.0154589 2.28404 7.25386 
459 1 1 7.18831 3.32246 7.35576 
45 1 1 1.61525 3.21914 8.04712 
42 1 1 0.718478 4.11998 8.01614 
442 1 1 0.736144 4.00548 6.44048 
448 1 1 1.84355 4.09191 7.10788 
447 1 1 2.4347 3.24637 7.26177 
452 1 1 3.20494 4.10192 7.29277 
53 1 1 4.71304 3.13837 0.104308 
451 1 1 4.00529 3.19573 7.35881 
453 1 1 4.86802 3.2 6.35443 
456 1 1 4.82844 3.81329 7.28987 
471 1 1 4.30371 4.67815 7.42574 
454 1 1 5.65355 3.98526 6.37584 
455 1 1 5.69608 3.26605 7.26463 
475 1 1 5.72142 4.80439 7.14066 
458 1 1 7.06597 3.91205 6.43518 
460 1 1 6.4561 4.07983 7.24857 
444 1 1 7.94505 4.081 7.11487 
463 1 1 0.998431 4.7616 7.23012 
485 1 1 1.65897 6.40498 6.54923 
462 1 1 0.86209 5.82912 6.60086 
483 1 1 0.631736 6.50321 7.50161 
464 1 1 0.0177276 5.54508 7.225 
468 1 1 1.60461 5.72958 7.32806 
467 1 1 2.48301 4.9815 7.39417 
487 1 1 2.49624 6.56803 7.30151 
89 1 1 3.40562 6.37598 8.05212 
473 1 1 4.98608 4.78654 6.47339 
69 1 1 3.31072 4.94479 8.05844 
472 1 1 3.42314 5.76018 7.28932 
491 1 1 4.21646 6.50928 7.23399 
476 1 1 4.78045 5.58421 7.29099 
474 1 1 5.59109 5.62614 6.47905 
77 1 1 6.42351 4.73573 0.119345 
495 1 1 5.51119 6.426 7.24689 
480 1 1 6.34452 5.75364 7.13271 
79 1 1 7.16809 5.49446 7.80283 
499 1 1 7.12554 5.60059 6.47937 
477 1 1 6.34171 4.85699 6.32301 
461 1 1 8.08149 4.93737 6.38476 
479 1 1 7.17222 4.78411 7.00737 
5 1 1 1.52873 -0.00523936 8.04264 
82 1 1 0.765833 7.37182 8.03538 
403 1 1 0.688146 0.00251662 7.21481 
482 1 1 0.911595 7.06053 6.39952 
488 1 1 1.56277 7.34293 7.31298 
86 1 1 2.69628 7.16457 -0.00524776 
486 1 1 2.42622 7.30634 6.41921 
492 1 1 3.01577 7.41918 7.16218 
90 1 1 4.06726 7.39949 8.04842 
496 1 1 4.75539 7.34167 7.18442 
500 1 1 6.31165 7.33888 7.10311 
98 1 1 7.25033 7.37543 0.12414 
401 1 1 8.08297 7.8739 6.49162 
78 1 1 7.2607 6.36883 7.26145 
484 1 1 7.98222 7.24028 7.37976 
419 1 1 7.12347 0.102732 7.34435 
498 1 1 7.16009 7.22698 6.50903 
