ITEM: TIMESTEP
29000
ITEM: NUMBER OF ATOMS
500
ITEM: BOX BOUNDS pp pp pp
0 8.07388
0 8.07388
0 8.07388
ITEM: ATOMS id type mass x y z 
2 1 1 0.922882 0.756378 0.194802 
3 1 1 0.969144 7.99735 0.892328 
8 1 1 1.80041 0.77065 0.846237 
102 1 1 0.915873 0.764887 1.49757 
125 1 1 1.5753 1.60246 1.69943 
121 1 1 0.202371 1.67518 1.72817 
27 1 1 2.53839 1.68144 0.896536 
7 1 1 2.37771 0.0462152 1.03829 
12 1 1 3.22325 0.903139 0.719331 
109 1 1 3.23426 7.97396 1.70717 
31 1 1 3.98225 1.61169 0.668679 
16 1 1 4.78473 0.624122 0.927269 
133 1 1 4.57487 1.49139 1.66654 
20 1 1 6.52915 0.915259 0.849276 
14 1 1 5.61924 0.903616 0.200111 
117 1 1 6.41913 0.0958175 1.62856 
4 1 1 0.070938 0.911412 0.900212 
19 1 1 7.42252 7.97109 0.951456 
118 1 1 7.22039 0.78766 1.57653 
23 1 1 0.892163 1.62329 0.917276 
25 1 1 1.65796 1.57242 0.0956378 
28 1 1 1.6573 2.35542 0.908948 
43 1 1 0.877853 3.27393 0.788821 
26 1 1 2.29499 2.42352 0.0381997 
45 1 1 1.57974 3.2638 0.0532481 
47 1 1 2.51332 3.06488 0.687253 
32 1 1 3.49929 2.47372 0.823703 
49 1 1 3.30079 3.16116 7.82658 
36 1 1 4.75973 2.73424 0.753233 
130 1 1 3.85396 2.51404 1.7304 
149 1 1 3.14035 3.23545 1.53041 
33 1 1 4.85679 1.61072 7.89865 
35 1 1 5.28172 1.60419 0.933696 
37 1 1 6.45897 1.7108 8.00976 
137 1 1 6.3083 1.75929 1.93046 
34 1 1 5.5511 2.35881 7.92382 
40 1 1 6.37034 2.37976 0.878563 
55 1 1 5.64317 3.20208 0.793976 
39 1 1 7.31662 1.60318 0.908733 
24 1 1 0.127595 2.38748 0.910779 
59 1 1 7.2254 3.14121 0.890107 
57 1 1 6.59492 3.16336 0.171017 
38 1 1 7.34751 2.28165 7.98086 
44 1 1 8.06098 3.99636 0.852611 
142 1 1 0.896382 4.03983 1.67449 
48 1 1 1.84394 4.01841 0.656978 
46 1 1 2.5347 3.98354 7.95197 
169 1 1 3.17777 4.9803 1.58719 
146 1 1 2.45587 4.08166 1.58802 
52 1 1 3.10099 4.01165 0.818731 
51 1 1 3.98 3.36215 0.584619 
71 1 1 4.14081 4.79716 0.619609 
150 1 1 3.95434 4.09971 1.49803 
56 1 1 4.89903 3.86865 0.704192 
54 1 1 5.68915 4.02946 0.115295 
77 1 1 6.51518 4.81799 0.03109 
60 1 1 6.4186 3.9596 0.868062 
58 1 1 7.28492 3.94018 8.06997 
141 1 1 8.08372 3.23273 1.61071 
63 1 1 0.927006 4.6785 0.812412 
68 1 1 1.53541 5.60703 0.840206 
64 1 1 0.0702575 5.48677 0.954201 
163 1 1 0.00828215 4.85801 1.83165 
62 1 1 0.65733 5.6729 0.0556072 
67 1 1 2.43493 4.98491 0.772122 
87 1 1 2.38994 6.37591 0.823428 
66 1 1 2.29973 5.64981 7.99568 
85 1 1 1.64215 6.45367 0.0092702 
72 1 1 3.31346 5.56839 0.701469 
91 1 1 4.08238 6.40308 0.602166 
189 1 1 3.17227 6.33923 1.51439 
75 1 1 5.72971 4.77139 0.848602 
76 1 1 4.883 5.58326 0.828288 
80 1 1 6.39617 5.5487 0.889839 
174 1 1 5.65931 5.55055 1.71108 
93 1 1 5.11943 6.33756 8.03378 
161 1 1 7.24074 4.83212 0.835208 
79 1 1 7.34497 5.68057 0.0546333 
61 1 1 0.0150201 4.84199 0.155612 
177 1 1 6.39958 4.70064 1.68212 
83 1 1 0.974006 6.59112 0.785553 
81 1 1 0.0325907 6.42976 0.241325 
82 1 1 0.714139 7.33863 -0.011296 
88 1 1 1.73723 7.27327 0.859009 
186 1 1 2.37741 7.17187 1.77438 
11 1 1 4.00436 7.93574 0.759269 
92 1 1 3.22803 7.22587 0.801391 
96 1 1 4.86759 7.16905 0.807301 
9 1 1 3.15108 0.0881285 0.00952913 
15 1 1 5.52718 7.94816 0.882447 
95 1 1 5.70896 6.36299 0.783846 
97 1 1 6.43716 6.30774 0.0715229 
84 1 1 0.131459 7.25974 0.768738 
100 1 1 6.52571 7.35768 0.924984 
99 1 1 7.06798 6.45178 1.00203 
198 1 1 7.35747 7.20245 1.64071 
108 1 1 1.62298 0.691003 2.46957 
103 1 1 0.97625 8.00733 2.48181 
101 1 1 0.117087 8.08898 1.68929 
205 1 1 1.55166 7.9683 3.34281 
106 1 1 2.50091 0.923676 1.60871 
107 1 1 2.36547 7.97084 2.53524 
127 1 1 2.3846 1.66809 2.45325 
112 1 1 3.19822 0.713157 2.36609 
129 1 1 3.35465 1.56816 1.56487 
206 1 1 2.35935 0.633547 3.29705 
229 1 1 3.22521 1.71735 3.31051 
110 1 1 3.92756 0.705176 1.57328 
116 1 1 4.81496 0.657389 2.34753 
131 1 1 3.8785 1.5038 2.43631 
114 1 1 5.59172 0.835545 1.69656 
120 1 1 6.36269 0.814754 2.38356 
214 1 1 5.59288 0.839959 3.05526 
237 1 1 6.56378 1.50566 3.251 
104 1 1 0.207954 0.719914 2.41685 
119 1 1 7.37737 8.07619 2.34264 
122 1 1 0.924865 2.64205 1.61484 
123 1 1 0.838237 1.8924 2.53185 
145 1 1 1.91275 3.18463 1.46722 
124 1 1 8.00604 2.52403 2.44227 
128 1 1 1.61594 2.61877 2.45562 
126 1 1 2.39034 2.35578 1.71746 
147 1 1 2.40878 3.29065 2.44445 
249 1 1 3.42485 3.26961 3.28656 
132 1 1 3.1316 2.48329 2.56407 
136 1 1 4.59126 2.45473 2.47361 
134 1 1 5.46151 2.43623 1.5353 
157 1 1 6.35998 3.12947 1.73224 
135 1 1 5.36426 1.72135 2.3467 
234 1 1 5.52335 2.33137 3.14231 
138 1 1 7.25094 2.49033 1.77156 
139 1 1 7.20971 1.67421 2.4059 
140 1 1 6.47079 2.37615 2.8197 
159 1 1 7.25971 3.30247 2.56485 
143 1 1 0.706012 3.3383 2.53727 
242 1 1 0.820513 4.71722 2.55592 
245 1 1 1.72281 3.2886 3.295 
244 1 1 0.669935 3.90315 3.33006 
148 1 1 1.67682 4.01093 2.40911 
167 1 1 2.36825 4.97845 2.45781 
153 1 1 4.69177 3.30797 1.77217 
173 1 1 4.75574 4.78719 1.72302 
151 1 1 3.94944 3.39998 2.43621 
152 1 1 3.07047 4.19836 2.41243 
156 1 1 4.72066 4.0899 2.5873 
154 1 1 5.59233 3.92339 1.682 
155 1 1 5.57574 3.15824 2.50135 
175 1 1 5.52626 4.79944 2.41411 
254 1 1 5.54787 4.01294 3.19533 
257 1 1 6.49929 3.30165 3.51888 
144 1 1 0.00140639 4.03985 2.51375 
160 1 1 6.28397 3.93629 2.52466 
158 1 1 7.08351 3.98393 1.60216 
162 1 1 0.94853 5.65388 1.70283 
164 1 1 0.024325 5.74926 2.34395 
168 1 1 1.52726 5.79284 2.48835 
261 1 1 8.00335 4.78176 3.1557 
165 1 1 1.55333 4.88252 1.82492 
166 1 1 2.22334 5.68711 1.66592 
266 1 1 2.53102 5.57409 3.24045 
172 1 1 3.15382 5.64048 2.39444 
187 1 1 2.48834 6.38647 2.5467 
171 1 1 3.90633 4.84488 2.40573 
170 1 1 3.95179 5.6015 1.56873 
191 1 1 3.87986 6.3622 2.45733 
289 1 1 3.18694 6.4775 3.20265 
176 1 1 4.79899 5.7999 2.37214 
274 1 1 5.74705 5.709 3.28631 
193 1 1 4.989 6.386 1.59626 
277 1 1 6.44063 4.883 3.39875 
179 1 1 7.15652 4.7048 2.42219 
178 1 1 7.27088 5.4884 1.74051 
180 1 1 6.48094 5.58722 2.55165 
278 1 1 7.38026 5.69458 3.07034 
297 1 1 6.58864 6.44534 3.28012 
181 1 1 0.0996812 6.52943 1.44941 
182 1 1 0.800254 7.24767 1.63517 
183 1 1 0.791223 6.46993 2.51215 
185 1 1 1.5698 6.47922 1.61493 
188 1 1 1.50754 7.1677 2.48411 
105 1 1 1.61925 8.00602 1.70857 
192 1 1 3.12781 7.27384 2.48376 
285 1 1 1.69373 6.49901 3.24921 
190 1 1 3.93805 7.03739 1.49518 
111 1 1 3.93582 7.94882 2.38472 
290 1 1 3.92653 7.39124 3.17784 
113 1 1 4.72185 7.92224 1.61794 
194 1 1 5.59207 7.23581 1.65512 
196 1 1 4.80362 7.08878 2.49215 
115 1 1 5.51581 -0.0132756 2.37318 
195 1 1 5.64707 6.48029 2.51241 
197 1 1 6.37976 6.32511 1.78333 
281 1 1 -0.0109469 6.42201 3.24495 
184 1 1 0.0372295 7.20377 2.52435 
200 1 1 6.4677 7.30911 2.29614 
199 1 1 7.28644 6.46099 2.33914 
202 1 1 1.00591 0.797274 3.26868 
208 1 1 1.66684 0.663575 4.16375 
204 1 1 0.268254 0.930439 3.86949 
227 1 1 2.43793 1.75643 4.02176 
207 1 1 2.4006 8.06392 4.05186 
210 1 1 3.99544 0.59723 3.15714 
233 1 1 4.70186 1.49152 3.07844 
212 1 1 3.25788 0.789068 3.96239 
231 1 1 3.94475 1.54909 4.12037 
217 1 1 6.42708 0.0763047 3.06155 
216 1 1 4.92025 0.851825 3.83495 
220 1 1 6.49816 0.789968 3.90907 
218 1 1 7.41122 0.854203 3.14784 
337 1 1 6.45455 1.63945 4.74329 
219 1 1 7.28385 0.168294 4.10065 
317 1 1 6.37004 8.04086 4.75411 
222 1 1 0.905042 2.54853 3.29606 
223 1 1 1.03766 1.75679 3.93698 
221 1 1 0.179684 1.53199 3.10915 
243 1 1 0.698825 3.22794 4.13635 
225 1 1 1.74633 1.50854 3.27429 
226 1 1 2.43096 2.57904 3.25199 
228 1 1 1.76776 2.58022 4.09341 
326 1 1 2.43517 2.55858 4.94816 
232 1 1 3.22606 2.41679 4.26145 
230 1 1 4.06515 2.45225 3.44844 
236 1 1 4.87754 2.30523 4.03696 
251 1 1 4.13535 3.40354 4.12384 
353 1 1 4.79146 3.23203 4.86605 
235 1 1 5.6108 1.62379 4.02125 
240 1 1 6.34199 2.39409 3.89053 
334 1 1 5.74676 2.38521 4.81875 
224 1 1 0.0453402 2.34476 4.0763 
341 1 1 0.0719046 3.26832 4.97274 
238 1 1 7.3941 2.30968 3.35378 
239 1 1 7.38506 1.40377 4.09952 
338 1 1 7.14351 2.48075 4.61309 
241 1 1 8.06415 3.11552 3.33021 
361 1 1 0.021967 4.88196 4.72227 
342 1 1 0.839155 4.17531 4.86289 
247 1 1 2.49166 3.28214 4.05461 
248 1 1 1.83402 4.2323 4.07266 
246 1 1 2.51268 4.03595 3.27531 
345 1 1 1.61151 3.41124 4.88718 
369 1 1 3.19522 4.70457 4.85278 
346 1 1 2.46449 4.00004 4.85832 
250 1 1 4.08347 4.11028 3.37334 
253 1 1 4.84616 3.28863 3.26342 
252 1 1 3.13311 4.00539 4.06401 
256 1 1 4.8938 4.05736 4.08215 
271 1 1 4.03142 4.86721 4.11605 
273 1 1 4.88036 4.85695 3.25007 
255 1 1 5.50469 3.16834 4.06687 
258 1 1 7.25567 4.08098 3.29338 
358 1 1 8.01351 4.10704 4.10944 
259 1 1 7.42351 3.29231 4.05936 
260 1 1 6.59534 4.27753 4.13356 
262 1 1 0.674243 5.57135 3.0697 
265 1 1 1.60108 5.0468 3.20063 
263 1 1 0.723894 4.85902 3.90283 
283 1 1 0.807693 6.61889 4.04392 
365 1 1 1.58785 5.03963 4.71311 
269 1 1 3.29344 4.81013 3.37861 
268 1 1 1.34803 5.74969 3.8634 
267 1 1 2.49416 4.94212 3.95367 
272 1 1 3.29267 5.61606 4.1978 
287 1 1 2.46765 6.39698 3.94253 
366 1 1 2.55439 5.70194 5.0802 
270 1 1 3.96451 5.58027 3.14403 
370 1 1 4.15462 5.7404 4.64652 
275 1 1 5.67474 4.93109 4.15951 
377 1 1 6.53272 5.06292 5.00047 
276 1 1 4.99378 5.64377 3.99436 
280 1 1 6.50119 5.66922 4.09071 
264 1 1 0.166735 5.69956 4.0705 
279 1 1 7.26584 5.02112 4.10452 
378 1 1 7.4069 5.73877 4.90037 
397 1 1 6.427 6.48048 4.77498 
203 1 1 0.813746 7.96556 4.11614 
282 1 1 0.777303 7.26854 3.28182 
284 1 1 7.94429 7.19191 3.98748 
286 1 1 2.37057 7.27812 3.26623 
288 1 1 1.68808 7.23111 4.00893 
389 1 1 3.16317 6.52063 4.70925 
385 1 1 1.69103 6.37342 4.82361 
293 1 1 4.86859 6.4292 3.33734 
211 1 1 3.99384 0.0609671 4.02713 
291 1 1 3.9732 6.57498 3.98253 
292 1 1 3.15585 7.27604 3.9695 
209 1 1 3.16523 8.04643 3.34176 
213 1 1 4.81507 8.10588 3.16308 
294 1 1 5.60433 7.46422 3.12564 
215 1 1 5.62045 0.112338 3.86904 
295 1 1 5.57578 6.41198 4.15588 
296 1 1 4.64322 7.35455 3.93787 
201 1 1 0.0377465 0.0344863 3.22932 
298 1 1 7.23509 7.48599 3.3328 
300 1 1 6.28489 7.21178 3.97902 
299 1 1 7.28459 6.4365 4.14887 
398 1 1 7.20727 7.27218 4.83455 
302 1 1 0.815122 0.777766 4.75196 
325 1 1 1.63135 1.55946 4.92812 
304 1 1 7.92579 0.772344 5.67543 
306 1 1 2.3927 0.779692 5.06478 
308 1 1 1.63355 0.642288 5.79543 
327 1 1 2.45458 1.74956 5.65385 
307 1 1 2.46561 7.93155 5.75074 
312 1 1 3.20016 0.792445 5.6711 
329 1 1 3.20291 1.53433 4.835 
309 1 1 3.21628 0.0418283 4.81128 
310 1 1 3.95606 0.821745 4.82306 
316 1 1 4.82653 0.5952 5.50545 
314 1 1 5.62078 0.810738 4.68937 
414 1 1 5.61418 0.897375 6.32182 
318 1 1 7.15219 0.889196 4.84645 
321 1 1 0.0214322 1.65916 4.80538 
320 1 1 6.44526 0.996845 5.64157 
418 1 1 7.2024 0.937 6.42769 
417 1 1 6.36339 0.0474987 6.50041 
322 1 1 0.841043 2.56086 4.84755 
323 1 1 0.711871 1.59408 5.59441 
324 1 1 0.158033 2.43251 5.64423 
343 1 1 0.867694 3.36758 5.60168 
425 1 1 1.53074 1.6063 6.3415 
328 1 1 1.51245 2.34247 5.64615 
332 1 1 3.28069 2.40121 5.42027 
445 1 1 1.56932 3.11266 6.37846 
347 1 1 2.46179 3.21927 5.74134 
429 1 1 3.28637 1.69268 6.28293 
426 1 1 2.3254 2.51861 6.52009 
349 1 1 3.32351 3.2582 4.90215 
331 1 1 4.11159 1.54915 5.54013 
330 1 1 4.14804 2.42064 4.70911 
433 1 1 4.84024 1.60727 6.37894 
453 1 1 4.8516 3.28993 6.40815 
333 1 1 4.80452 1.4761 4.73484 
335 1 1 5.66057 1.68109 5.59805 
336 1 1 4.76909 2.46176 5.60247 
340 1 1 6.46865 2.30335 5.64057 
355 1 1 5.65276 3.05731 5.54228 
434 1 1 5.67834 2.46977 6.62592 
339 1 1 7.32179 1.70247 5.63825 
438 1 1 7.29943 2.47752 6.50877 
359 1 1 7.33995 3.0076 5.65201 
441 1 1 8.08898 3.38503 6.44316 
344 1 1 -0.00432608 4.04603 5.64654 
442 1 1 0.922282 3.98405 6.56583 
461 1 1 0.081745 4.77001 6.4634 
348 1 1 1.6199 4.02801 5.81887 
352 1 1 3.22847 3.99072 5.70563 
449 1 1 3.34913 2.98129 6.38508 
350 1 1 4.01901 4.06473 5.0113 
351 1 1 4.12892 3.31121 5.73081 
450 1 1 4.2632 4.09193 6.44575 
356 1 1 4.78883 4.23179 5.58395 
354 1 1 5.62757 3.8713 4.91785 
373 1 1 4.90113 4.85954 4.82076 
375 1 1 5.6405 4.83588 5.81428 
454 1 1 5.55175 3.99957 6.47893 
379 1 1 7.26212 3.99229 4.84599 
357 1 1 6.5154 3.30248 4.80243 
360 1 1 6.44859 4.01621 5.67983 
362 1 1 0.783264 5.6995 5.01538 
363 1 1 0.898472 4.80362 5.60401 
381 1 1 0.111778 6.48386 4.74876 
368 1 1 1.66861 5.68584 5.72377 
364 1 1 -0.000522457 5.81126 5.80615 
367 1 1 2.48049 4.84316 5.64668 
387 1 1 2.50389 6.36424 5.7616 
466 1 1 2.31021 5.52712 6.47573 
393 1 1 4.84605 6.48418 4.85604 
372 1 1 3.21684 5.58584 5.87153 
371 1 1 4.04007 4.99227 5.42293 
376 1 1 4.79182 5.69373 5.733 
391 1 1 3.97761 6.57615 5.56701 
493 1 1 4.68144 6.36731 6.38297 
374 1 1 5.71373 5.71967 4.9491 
473 1 1 4.90276 4.93889 6.5441 
395 1 1 5.73212 6.47889 5.68361 
478 1 1 7.34554 5.01201 5.69988 
380 1 1 6.38633 5.75374 5.74792 
499 1 1 7.276 5.72822 6.52548 
301 1 1 8.02488 7.97833 4.64598 
303 1 1 0.821534 0.0548569 5.73552 
383 1 1 0.768095 6.47325 5.68941 
382 1 1 0.878096 7.2759 4.88222 
384 1 1 0.00215933 7.3553 5.58129 
405 1 1 1.43791 7.98371 6.44105 
305 1 1 1.56003 0.0425375 4.89662 
388 1 1 1.6828 7.19435 5.71959 
386 1 1 2.45963 7.3149 4.7918 
489 1 1 3.3937 6.40441 6.40906 
311 1 1 4.07335 0.00922725 5.73434 
392 1 1 3.19777 7.22637 5.58587 
390 1 1 3.87988 7.31687 4.81656 
490 1 1 4.02019 7.23007 6.52269 
313 1 1 4.71569 7.92621 4.69351 
315 1 1 5.65781 8.09127 5.53335 
396 1 1 4.8623 7.17558 5.80973 
394 1 1 5.57953 7.35359 4.86694 
494 1 1 5.60796 7.3492 6.582 
399 1 1 7.21444 6.48826 5.79901 
319 1 1 7.10932 8.04464 5.58749 
400 1 1 6.5142 7.27276 5.62494 
5 1 1 1.71542 7.99881 0.0588135 
402 1 1 0.741976 0.833469 6.41537 
403 1 1 0.61952 0.07184 7.37239 
6 1 1 2.46438 0.787444 8.02544 
406 1 1 2.46739 0.720951 6.36696 
408 1 1 1.53922 0.630317 7.18335 
407 1 1 2.44477 8.05028 7.20983 
412 1 1 3.16486 0.920701 7.20859 
427 1 1 2.23731 1.51575 7.30707 
10 1 1 3.92821 0.799306 0.0463565 
410 1 1 4.06738 0.845174 6.31017 
13 1 1 4.89526 7.94235 8.08261 
416 1 1 4.82804 0.837153 7.42784 
413 1 1 4.94033 0.0274684 6.74133 
415 1 1 5.71365 0.11187 7.43644 
404 1 1 8.02171 0.908749 7.32547 
18 1 1 7.29815 0.835699 0.0489506 
420 1 1 6.37259 0.836301 7.17012 
17 1 1 6.51327 0.0279052 0.0858402 
1 1 1 8.01503 8.10678 0.0564785 
22 1 1 0.856364 2.4778 0.0821899 
423 1 1 0.81401 1.5677 7.34725 
422 1 1 0.761242 2.45322 6.47134 
428 1 1 1.63615 2.3559 7.33643 
424 1 1 0.0517929 2.71903 7.25591 
443 1 1 0.97485 3.19366 7.3255 
421 1 1 0.11265 1.63076 6.5787 
447 1 1 2.35201 3.19658 7.2558 
432 1 1 3.25769 2.22002 7.18982 
29 1 1 3.13035 1.66775 8.0592 
30 1 1 4.16889 2.43027 -0.0191183 
430 1 1 4.09544 2.28408 6.41205 
431 1 1 4.00146 1.51326 7.20674 
436 1 1 4.79995 2.4487 7.14989 
451 1 1 4.09472 3.2101 7.09753 
53 1 1 4.90149 3.15663 7.85182 
435 1 1 5.66213 1.51738 7.19577 
440 1 1 6.4327 2.58823 7.30466 
455 1 1 5.79189 3.45514 7.31172 
21 1 1 0.166445 1.53774 0.030472 
439 1 1 7.15705 1.58538 7.27746 
457 1 1 6.50107 3.16945 6.38606 
437 1 1 6.47083 1.80313 6.54038 
41 1 1 7.93557 3.22968 0.143049 
42 1 1 0.753679 3.93466 -0.0165194 
448 1 1 1.66115 4.01877 7.36193 
69 1 1 3.28712 4.78403 7.88675 
446 1 1 2.32216 4.12439 6.55144 
452 1 1 3.18795 3.96598 6.95706 
467 1 1 2.2669 4.82174 7.3265 
469 1 1 3.16206 4.78068 6.44764 
50 1 1 4.13591 4.07195 7.87263 
456 1 1 5.0359 4.1531 7.32593 
471 1 1 4.04997 4.87986 7.25464 
73 1 1 4.97841 4.83557 0.0660761 
475 1 1 5.71541 4.86877 7.19073 
460 1 1 6.64407 4.08259 7.26706 
458 1 1 7.26542 4.04755 6.33357 
444 1 1 0.0974522 4.08059 7.27316 
459 1 1 7.25308 3.20921 7.39079 
481 1 1 8.02752 6.65517 6.43939 
65 1 1 1.58294 4.73897 0.123555 
462 1 1 0.871845 5.64328 6.56084 
463 1 1 0.935718 4.78059 7.31057 
465 1 1 1.56132 4.89123 6.49874 
464 1 1 7.98682 5.66267 7.27264 
468 1 1 1.6048 5.69796 7.26562 
472 1 1 3.06694 5.46019 7.1389 
487 1 1 2.48528 6.41067 7.24681 
70 1 1 4.26126 5.57611 0.0335959 
470 1 1 4.03029 5.52867 6.37913 
89 1 1 3.00396 6.35223 0.0310998 
491 1 1 3.79324 6.26531 7.40221 
474 1 1 5.61555 5.70559 6.61439 
477 1 1 6.59712 4.90983 6.44518 
74 1 1 5.77772 5.58348 0.0637146 
476 1 1 4.85789 5.62173 7.29368 
480 1 1 6.56594 5.51485 7.23889 
479 1 1 7.32731 4.8389 7.35696 
485 1 1 1.70046 6.27537 6.46949 
483 1 1 0.838544 6.50815 7.45622 
482 1 1 0.706369 7.30581 6.7384 
488 1 1 1.65799 7.18076 7.35074 
86 1 1 2.40876 7.14598 0.0633882 
486 1 1 2.42282 7.25233 6.46398 
409 1 1 3.17693 7.9505 6.52765 
492 1 1 3.30788 7.18847 7.26253 
90 1 1 3.87594 7.18279 0.0218777 
411 1 1 3.83735 0.0715154 7.29091 
496 1 1 4.91496 7.08253 7.28122 
497 1 1 6.45982 6.68223 6.52833 
94 1 1 5.64106 7.28392 8.08305 
495 1 1 5.88437 6.44017 7.34034 
98 1 1 7.29107 7.20859 0.124713 
498 1 1 7.29274 7.3738 6.42531 
78 1 1 7.18629 6.52259 7.34677 
401 1 1 7.95198 0.241228 6.52994 
484 1 1 7.91989 7.34592 7.31709 
500 1 1 6.38368 7.39184 7.36133 
419 1 1 7.23841 0.124088 7.26934 
