ITEM: TIMESTEP
11000
ITEM: NUMBER OF ATOMS
500
ITEM: BOX BOUNDS pp pp pp
0 8.07388
0 8.07388
0 8.07388
ITEM: ATOMS id type mass x y z 
102 1 1 0.886752 0.623942 1.70246 
2 1 1 0.84981 0.741137 7.90271 
8 1 1 1.66808 0.658932 0.849398 
3 1 1 0.767175 8.04803 0.720144 
29 1 1 3.32302 1.59447 8.06041 
12 1 1 3.1102 0.708523 0.837187 
129 1 1 3.19088 1.49673 1.53415 
10 1 1 3.74676 0.630761 0.0236474 
31 1 1 4.01471 1.55301 0.837683 
16 1 1 4.79326 0.66696 0.860896 
114 1 1 5.57572 0.792575 1.59985 
35 1 1 5.58615 1.54809 0.863044 
4 1 1 7.98302 0.758384 0.756153 
37 1 1 6.57596 1.433 0.183134 
20 1 1 6.46203 0.900569 0.971439 
19 1 1 7.2387 0.0696326 0.856372 
23 1 1 0.84634 1.45877 0.892109 
24 1 1 8.06641 2.14517 1.01418 
22 1 1 0.742391 2.37265 0.0407056 
27 1 1 2.37419 1.67996 0.840889 
28 1 1 1.56844 2.25951 0.76654 
32 1 1 3.22183 2.46267 0.938505 
149 1 1 3.26705 3.33057 1.4863 
26 1 1 2.38114 2.41847 -0.00032324 
36 1 1 4.75665 2.32417 0.814277 
130 1 1 4.01545 2.41817 1.57563 
49 1 1 3.27245 3.22925 0.220599 
30 1 1 3.91589 2.39426 0.199091 
53 1 1 4.83353 3.26501 0.0322886 
33 1 1 4.90861 1.52071 7.8828 
34 1 1 5.55111 2.38549 0.0893732 
39 1 1 7.27944 1.50683 0.940011 
40 1 1 6.36811 2.26829 0.757727 
59 1 1 7.29402 3.07677 0.786711 
38 1 1 7.3642 2.43239 0.0198138 
43 1 1 0.880096 3.06227 0.907154 
41 1 1 0.0725391 3.1407 0.0899475 
142 1 1 0.717858 3.99562 1.7433 
42 1 1 0.917509 4.02427 8.03654 
48 1 1 1.76256 3.92968 0.780401 
45 1 1 1.64709 3.20284 0.0287058 
47 1 1 2.46573 3.25479 0.869713 
52 1 1 3.13491 4.07364 0.84461 
145 1 1 1.61394 3.18595 1.57493 
51 1 1 4.10107 3.16342 0.83683 
71 1 1 4.05257 4.98555 0.898047 
50 1 1 3.87699 4.01631 0.0649865 
56 1 1 4.74738 4.11085 0.756691 
153 1 1 4.79558 3.24179 1.6117 
55 1 1 5.58196 3.2028 0.822127 
154 1 1 5.55092 4.13847 1.4352 
54 1 1 5.70396 3.9358 0.0684287 
75 1 1 5.64931 5.01548 0.765696 
44 1 1 0.147704 3.87033 0.915149 
60 1 1 6.48263 3.97559 0.701307 
79 1 1 7.10872 4.83092 0.524731 
158 1 1 7.50456 4.02661 1.58769 
58 1 1 7.27834 3.93972 0.0731251 
63 1 1 0.955491 4.8394 0.822241 
62 1 1 0.616216 5.69652 8.07588 
83 1 1 0.725583 6.45762 0.784394 
162 1 1 0.774774 5.63659 1.65317 
181 1 1 8.04287 6.62499 1.58705 
67 1 1 2.32415 4.92207 0.807638 
68 1 1 1.45384 5.79153 0.621775 
72 1 1 3.12783 5.81676 1.03022 
69 1 1 3.30668 4.91204 0.129704 
66 1 1 2.43832 5.60346 0.00124758 
91 1 1 3.91159 6.49501 1.0879 
76 1 1 4.74301 5.70453 0.762609 
174 1 1 5.58977 5.69822 1.54344 
74 1 1 5.56115 5.76828 8.07297 
97 1 1 6.51445 6.51385 0.0139359 
61 1 1 7.94865 4.81799 8.00957 
81 1 1 8.04805 6.57601 7.98889 
177 1 1 6.52595 4.87196 1.42184 
64 1 1 -0.00100913 5.83221 0.999465 
80 1 1 6.46278 5.65782 0.720437 
178 1 1 7.20649 5.54122 1.86285 
182 1 1 0.799208 7.22065 1.43783 
101 1 1 -0.0112984 8.06208 1.64402 
5 1 1 1.59149 0.0588683 8.03338 
105 1 1 1.56503 7.92099 1.67453 
88 1 1 1.56395 7.26958 0.829596 
87 1 1 2.30255 6.44864 0.969713 
7 1 1 2.3265 7.86117 0.776465 
186 1 1 2.46018 7.23828 1.69471 
92 1 1 3.21705 7.23327 0.93409 
86 1 1 2.43332 7.21174 8.01954 
11 1 1 4.00974 7.96168 0.828343 
96 1 1 4.81103 7.22785 0.895463 
113 1 1 4.8035 7.9532 1.58052 
95 1 1 5.67331 6.45572 0.829516 
15 1 1 5.63827 8.00441 0.897485 
197 1 1 6.35443 6.5262 1.57038 
194 1 1 5.6012 7.20087 1.56747 
99 1 1 7.33332 6.47961 0.708631 
100 1 1 6.35367 7.2765 0.860121 
84 1 1 8.00297 7.27779 0.78451 
117 1 1 6.38079 0.0313031 1.70223 
98 1 1 7.34284 7.40296 8.03765 
123 1 1 0.88281 1.51484 2.48685 
108 1 1 1.76919 0.849611 2.46477 
221 1 1 8.01383 1.67146 3.31995 
106 1 1 2.38632 0.6689 1.5872 
127 1 1 2.45156 1.66666 2.28295 
206 1 1 2.42101 0.624455 3.36913 
112 1 1 3.10632 0.785924 2.43412 
125 1 1 1.58128 1.5406 1.57571 
225 1 1 1.62274 1.39059 3.32953 
110 1 1 4.01527 0.825998 1.53868 
116 1 1 4.74528 0.85937 2.44141 
210 1 1 4.01391 0.826485 3.32938 
233 1 1 4.8698 1.56805 3.17801 
213 1 1 4.90041 0.0321421 3.17951 
133 1 1 4.86199 1.61174 1.62925 
137 1 1 6.4108 1.61696 1.73704 
217 1 1 6.42566 0.00285503 3.15737 
120 1 1 6.48376 0.760309 2.51949 
135 1 1 5.62485 1.75399 2.45068 
115 1 1 5.65232 -0.00928803 2.41242 
121 1 1 0.0779377 1.42135 1.74458 
118 1 1 7.18185 0.758003 1.76442 
104 1 1 8.07718 0.676591 2.38896 
139 1 1 7.36466 1.60656 2.4218 
119 1 1 7.30247 8.02184 2.37927 
141 1 1 0.0666832 3.20973 1.71165 
122 1 1 0.777908 2.26847 1.68359 
222 1 1 0.932147 2.36508 3.13527 
124 1 1 7.98537 2.43177 2.51541 
241 1 1 8.03207 3.26119 3.28645 
126 1 1 2.42936 2.40499 1.65183 
229 1 1 3.31618 1.60496 3.29015 
128 1 1 1.65446 2.47007 2.42534 
132 1 1 3.32741 2.43587 2.31832 
131 1 1 3.90605 1.50208 2.34579 
249 1 1 3.15059 3.24237 3.11923 
230 1 1 3.95716 2.6127 3.34995 
136 1 1 4.70634 2.20485 2.35567 
151 1 1 3.91194 3.33938 2.26967 
134 1 1 5.61407 2.43706 1.6468 
234 1 1 5.59305 2.50982 3.17768 
138 1 1 7.2216 2.42023 1.674 
140 1 1 6.35307 2.51442 2.40297 
159 1 1 7.36046 3.39117 2.42138 
238 1 1 7.28201 2.42742 3.21651 
143 1 1 0.874446 3.21483 2.41401 
245 1 1 1.58616 3.26163 3.20467 
242 1 1 0.857265 4.09838 3.07095 
148 1 1 1.66671 3.96068 2.3839 
144 1 1 8.06451 4.1042 2.63017 
146 1 1 2.43995 4.0436 1.59087 
147 1 1 2.47854 3.15954 2.35306 
246 1 1 2.27715 4.16317 3.28521 
152 1 1 3.27906 4.13106 2.31912 
150 1 1 3.94496 4.02262 1.49288 
171 1 1 4.00098 4.86506 2.34724 
250 1 1 4.01875 4.031 3.04754 
155 1 1 5.66657 3.33038 2.11089 
253 1 1 4.89388 3.18198 2.9053 
156 1 1 4.82104 4.1306 2.26286 
175 1 1 5.53161 4.8024 2.37668 
254 1 1 5.71497 3.97603 2.99748 
160 1 1 6.56757 4.19978 2.25324 
273 1 1 4.82628 4.64405 3.25308 
157 1 1 6.49117 3.19492 1.56773 
257 1 1 6.52191 3.12936 3.17237 
258 1 1 7.15359 3.9924 3.21622 
277 1 1 6.39637 4.86344 3.18915 
163 1 1 0.132221 4.93418 2.04406 
168 1 1 1.57844 5.7499 2.48952 
183 1 1 0.815272 6.41869 2.52446 
165 1 1 1.67514 4.70596 1.62505 
166 1 1 2.40653 5.66561 1.7254 
169 1 1 3.07504 4.89866 1.58689 
269 1 1 3.22344 4.82913 3.15643 
167 1 1 2.30996 4.83905 2.38331 
266 1 1 2.39705 5.68001 3.26445 
172 1 1 3.3087 5.67056 2.5689 
289 1 1 3.2952 6.52178 3.24318 
173 1 1 4.80098 5.04608 1.55645 
189 1 1 3.26895 6.50347 1.77103 
170 1 1 3.84366 5.65575 1.64476 
270 1 1 4.04697 5.60407 3.34051 
176 1 1 4.87639 5.73205 2.49979 
180 1 1 6.37659 5.68662 2.59818 
274 1 1 5.69715 5.64335 3.41877 
179 1 1 7.41993 4.93099 2.6981 
161 1 1 7.96706 4.77835 1.07653 
164 1 1 8.05273 5.87071 2.54048 
278 1 1 7.13401 5.94035 3.20459 
185 1 1 1.49496 6.52552 1.52814 
103 1 1 0.946271 8.02681 2.46167 
188 1 1 1.55895 7.17516 2.31506 
184 1 1 0.235076 7.19403 2.33767 
282 1 1 0.842617 7.20458 3.27936 
109 1 1 3.2985 0.0265316 1.55002 
107 1 1 2.51314 8.00603 2.45344 
285 1 1 1.71402 6.53404 3.32843 
187 1 1 2.34764 6.491 2.45755 
205 1 1 1.65518 8.0669 3.34427 
191 1 1 4.056 6.45427 2.58835 
111 1 1 3.95231 0.0400559 2.43016 
190 1 1 3.91616 7.36244 1.70111 
192 1 1 3.24136 7.24047 2.47321 
196 1 1 4.77408 7.28761 2.49486 
193 1 1 4.74631 6.33582 1.61854 
195 1 1 5.51148 6.57071 2.52121 
200 1 1 6.28782 7.2506 2.38692 
198 1 1 7.19943 7.20811 1.54453 
199 1 1 7.30715 6.64867 2.30714 
298 1 1 7.12503 7.23768 3.11899 
202 1 1 0.843683 0.719758 3.32073 
208 1 1 1.64217 0.766096 4.15967 
204 1 1 0.127732 0.751745 4.01874 
306 1 1 2.48995 0.77804 4.97647 
212 1 1 3.16251 0.731518 4.09008 
329 1 1 3.29094 1.70808 4.72325 
231 1 1 4.04779 1.62471 3.97843 
214 1 1 5.58454 0.863976 3.13957 
216 1 1 4.91653 0.977289 4.07389 
220 1 1 6.52305 0.850308 3.84426 
235 1 1 5.65025 1.74246 3.87862 
237 1 1 6.51483 1.65427 3.1702 
218 1 1 7.39976 0.835905 3.31497 
239 1 1 7.25555 1.58463 4.0163 
318 1 1 7.38936 0.847539 4.90884 
223 1 1 0.85892 1.77043 3.99994 
243 1 1 0.882033 3.22826 3.90784 
228 1 1 1.74884 2.551 4.01611 
322 1 1 0.930566 2.68506 4.76164 
226 1 1 2.43739 2.50219 3.10099 
227 1 1 2.34707 1.68331 3.98784 
326 1 1 2.48759 2.50913 4.70487 
232 1 1 3.14702 2.52071 3.94743 
251 1 1 4.08391 3.44833 4.03387 
236 1 1 4.89242 2.46576 3.99327 
330 1 1 3.90226 2.47288 4.69901 
255 1 1 5.86037 3.05936 4.04413 
240 1 1 6.5328 2.21162 4.19281 
337 1 1 6.41098 1.39295 4.86347 
353 1 1 4.79762 3.14655 4.69174 
334 1 1 5.66344 2.18532 4.86606 
224 1 1 0.152091 2.50916 4.0846 
338 1 1 7.43638 2.37356 4.79045 
357 1 1 6.51328 3.16914 4.93011 
248 1 1 1.59927 4.00098 4.01058 
244 1 1 0.1858 4.08658 3.926 
247 1 1 2.52267 3.4039 4.08143 
252 1 1 3.29217 4.10492 3.93097 
346 1 1 2.38197 4.06707 4.8986 
271 1 1 4.13733 4.76216 4.00562 
350 1 1 4.0789 4.08523 4.82254 
256 1 1 5.12351 3.88117 3.98391 
275 1 1 5.59735 4.9077 4.11625 
377 1 1 6.50085 4.80312 4.96268 
354 1 1 5.81084 4.11482 4.98809 
259 1 1 7.13372 3.19145 3.94618 
260 1 1 6.22441 4.10469 3.96983 
358 1 1 7.1732 4.09705 4.70955 
263 1 1 0.932936 4.95574 4.06785 
265 1 1 1.64774 5.0192 3.21885 
262 1 1 0.807664 5.68923 3.2165 
261 1 1 0.106854 4.93647 3.35778 
268 1 1 1.65259 5.67756 4.15535 
264 1 1 8.02737 5.86904 3.84385 
267 1 1 2.34543 4.78155 4.08685 
287 1 1 2.47238 6.43966 4.00818 
272 1 1 3.11415 5.69465 3.95101 
389 1 1 3.25028 6.36919 4.82394 
291 1 1 3.91528 6.37935 4.07027 
370 1 1 4.11843 5.59499 4.81249 
293 1 1 4.84602 6.41082 3.39719 
276 1 1 4.79411 5.6309 4.07574 
280 1 1 6.4297 5.74545 4.07058 
279 1 1 7.27484 4.95212 3.87779 
281 1 1 7.96781 6.68433 3.20837 
378 1 1 7.27205 5.64053 4.83494 
201 1 1 0.0771387 8.00362 3.19248 
203 1 1 0.829813 7.95629 4.06307 
283 1 1 0.901209 6.45235 3.95396 
284 1 1 0.0443521 7.21807 4.07417 
301 1 1 0.121683 -0.000299804 4.79973 
286 1 1 2.51327 7.39517 3.33424 
207 1 1 2.33482 8.05715 4.28222 
288 1 1 1.58913 7.24658 4.03812 
305 1 1 1.53867 7.89163 4.87216 
209 1 1 3.31945 0.0894209 3.21162 
211 1 1 4.07782 0.172688 4.06913 
290 1 1 3.99825 7.34212 3.49465 
292 1 1 3.14879 7.27914 4.20635 
294 1 1 5.60788 7.37743 3.3002 
295 1 1 5.68936 6.52234 4.0884 
296 1 1 4.87406 7.48576 4.0071 
215 1 1 5.62862 0.234713 3.97417 
300 1 1 6.35004 7.41714 4.01336 
297 1 1 6.33682 6.52919 3.18081 
219 1 1 7.13327 8.08846 3.80685 
299 1 1 7.0983 6.47928 4.04328 
302 1 1 0.859555 0.887536 4.81725 
321 1 1 0.167821 1.65082 4.81887 
304 1 1 0.206445 0.658131 5.72485 
303 1 1 0.998349 0.0773325 5.84604 
309 1 1 3.33392 7.96109 4.88434 
308 1 1 1.75563 0.931958 5.81732 
327 1 1 2.46497 1.77504 5.74186 
307 1 1 2.49051 7.8699 5.57951 
409 1 1 3.26329 7.85723 6.44705 
312 1 1 3.35379 0.854251 5.66617 
310 1 1 4.04917 0.773543 4.83398 
311 1 1 4.06935 0.100466 5.57067 
331 1 1 4.15833 1.57951 5.76584 
410 1 1 4.10595 0.748139 6.48082 
316 1 1 4.87221 0.854224 5.67961 
314 1 1 5.48286 0.970179 4.90138 
315 1 1 5.74862 0.0344789 5.69763 
320 1 1 6.55153 0.799366 5.77677 
319 1 1 7.279 0.0303473 5.61709 
317 1 1 6.45537 0.33649 4.82106 
323 1 1 0.794833 1.82646 5.58019 
324 1 1 0.00971257 2.47238 5.65529 
421 1 1 -0.00538627 1.70853 6.55555 
325 1 1 1.82504 1.6406 4.91303 
328 1 1 1.67965 2.39273 5.78594 
332 1 1 3.36166 2.35474 5.61403 
336 1 1 4.76233 2.4119 5.71445 
333 1 1 4.6518 1.80084 4.88321 
335 1 1 5.59909 1.58475 5.81942 
355 1 1 5.56424 3.07785 5.42329 
437 1 1 6.44327 1.54106 6.36195 
341 1 1 8.04595 3.30674 4.63755 
340 1 1 6.37598 2.25013 5.60938 
339 1 1 7.40092 1.67479 5.74553 
438 1 1 7.11128 2.41663 6.51693 
359 1 1 7.43806 3.34678 5.64015 
343 1 1 0.806564 3.24388 5.58853 
342 1 1 0.833263 4.0398 4.80232 
344 1 1 0.0240215 4.0606 5.47541 
363 1 1 0.929075 4.85399 5.64522 
345 1 1 1.67002 3.35094 4.7599 
349 1 1 3.18786 3.29462 4.81419 
365 1 1 1.62731 4.82455 4.82404 
369 1 1 3.31693 4.94361 4.5256 
347 1 1 2.48331 3.13987 5.55564 
348 1 1 1.64985 3.994 5.61054 
352 1 1 3.1724 4.05765 5.50274 
367 1 1 2.3944 4.97206 5.51114 
351 1 1 4.03537 3.21123 5.66992 
373 1 1 4.83557 4.73521 4.80084 
356 1 1 4.89891 4.01482 5.64655 
449 1 1 3.28698 3.25222 6.51426 
453 1 1 4.79792 3.16785 6.55962 
450 1 1 4.03849 4.04346 6.32762 
473 1 1 4.77285 4.84103 6.49299 
360 1 1 6.51745 4.03183 5.70648 
375 1 1 5.54076 4.80818 5.65595 
477 1 1 6.39631 4.80816 6.47292 
458 1 1 7.43592 4.08427 6.37381 
379 1 1 7.42315 4.80666 5.5429 
362 1 1 0.802983 5.68394 4.76853 
361 1 1 8.05989 4.84621 4.60115 
368 1 1 1.6402 5.56894 5.69284 
462 1 1 0.726975 5.79354 6.52287 
461 1 1 0.0775721 4.77474 6.45013 
383 1 1 0.707061 6.52047 5.70032 
485 1 1 1.61362 6.21424 6.4333 
366 1 1 2.5023 5.65908 4.91597 
385 1 1 1.49531 6.40717 4.90039 
469 1 1 3.35162 5.03471 6.53567 
372 1 1 3.29825 5.64231 5.59626 
387 1 1 2.37637 6.41994 5.70896 
371 1 1 4.00545 4.95552 5.58074 
391 1 1 4.01766 6.39405 5.53154 
376 1 1 4.90114 5.63715 5.60161 
470 1 1 4.17502 5.70326 6.31617 
393 1 1 4.85236 6.45448 4.94929 
374 1 1 5.67439 5.64937 4.87932 
395 1 1 5.71692 6.43239 5.6989 
474 1 1 5.55755 5.5283 6.62077 
364 1 1 0.126064 5.5845 5.6309 
380 1 1 6.56251 5.57192 5.63723 
478 1 1 7.32296 5.60821 6.27491 
382 1 1 0.812816 7.18387 4.86055 
482 1 1 0.948435 7.2385 6.43056 
381 1 1 7.98904 6.46003 4.70436 
384 1 1 0.206867 7.33319 5.74057 
481 1 1 0.000909886 6.55057 6.48691 
388 1 1 1.52141 7.18385 5.58283 
386 1 1 2.40319 7.04098 4.8547 
313 1 1 4.91159 0.0752079 4.94756 
392 1 1 3.32281 7.24744 5.57611 
390 1 1 4.05312 7.36958 4.66661 
490 1 1 4.09275 7.19247 6.41437 
394 1 1 5.76065 7.4828 4.93299 
396 1 1 4.74433 7.24954 5.61793 
494 1 1 5.67144 7.30809 6.43358 
397 1 1 6.33364 6.48905 4.88258 
400 1 1 6.42508 7.31311 5.67114 
398 1 1 7.11959 7.3636 4.79501 
399 1 1 7.42753 6.55803 5.50827 
498 1 1 7.18257 7.24499 6.36085 
21 1 1 0.0593541 1.59692 8.06359 
402 1 1 0.849713 1.04494 6.3888 
405 1 1 1.79995 8.02593 6.43814 
401 1 1 0.0239815 8.00539 6.55974 
6 1 1 2.32614 1.01651 0.0250941 
406 1 1 2.61758 0.743236 6.41932 
408 1 1 1.7152 0.856812 7.15353 
412 1 1 3.19833 1.01952 7.28648 
13 1 1 4.78755 7.85453 8.04039 
431 1 1 3.99523 1.58279 7.32516 
433 1 1 4.86305 1.49857 6.57071 
416 1 1 4.88381 0.478172 7.33048 
429 1 1 3.11781 1.70657 6.52286 
14 1 1 5.54849 0.625314 0.147076 
414 1 1 5.6041 0.591169 6.59993 
420 1 1 6.46545 0.868198 7.36101 
413 1 1 4.81425 8.02026 6.30817 
417 1 1 6.54435 0.0497746 6.43248 
415 1 1 5.69156 7.87155 7.4584 
18 1 1 7.37145 0.698071 8.04367 
17 1 1 6.46819 0.0453908 0.172459 
418 1 1 7.30826 0.876765 6.63899 
404 1 1 0.0910065 0.864476 7.18352 
1 1 1 0.027554 8.09475 7.84806 
419 1 1 7.13002 0.0527058 7.34065 
422 1 1 0.814291 2.40104 6.47421 
441 1 1 0.0257687 3.09179 6.60086 
25 1 1 1.41057 1.48582 0.0449296 
423 1 1 0.912395 1.62519 7.27496 
424 1 1 0.00905521 2.42154 7.29827 
443 1 1 0.94601 3.29454 7.35736 
425 1 1 1.58517 1.71017 6.44445 
427 1 1 2.31387 1.66254 7.20521 
428 1 1 1.6086 2.51407 7.2373 
426 1 1 2.36714 2.50065 6.51347 
432 1 1 3.29024 2.40113 7.29033 
430 1 1 4.07074 2.28231 6.55285 
436 1 1 4.74535 2.50537 7.42517 
451 1 1 3.96744 3.2073 7.33566 
57 1 1 6.52791 3.09243 0.0891864 
434 1 1 5.52558 2.47468 6.53678 
435 1 1 5.73941 1.59552 7.19171 
440 1 1 6.36495 2.27995 7.48698 
457 1 1 6.39388 3.15397 6.25611 
455 1 1 5.49998 3.21688 7.41276 
439 1 1 7.26139 1.62965 7.44478 
459 1 1 7.16796 3.16983 7.19282 
442 1 1 0.848137 4.0876 6.61249 
448 1 1 1.82137 4.05309 7.15335 
445 1 1 1.59988 3.22771 6.43691 
446 1 1 2.45501 4.0766 6.3769 
465 1 1 1.49891 4.82608 6.53782 
447 1 1 2.40355 3.24171 7.30444 
46 1 1 2.58092 4.27431 7.98257 
452 1 1 3.22659 3.9873 7.1751 
471 1 1 3.98769 4.70117 7.33939 
454 1 1 5.6416 3.94366 6.27385 
456 1 1 4.74655 4.03438 7.3998 
460 1 1 6.57814 3.97698 7.09459 
475 1 1 5.52681 4.56386 7.18096 
73 1 1 4.79515 4.88205 8.05699 
444 1 1 8.02173 3.81375 7.3386 
77 1 1 6.33185 4.7084 7.95546 
85 1 1 1.63607 6.45388 7.98251 
463 1 1 0.739838 4.8644 7.33361 
468 1 1 1.41015 5.646 7.36998 
464 1 1 8.00953 5.7506 7.17601 
65 1 1 1.70538 4.80942 0.0877658 
466 1 1 2.49723 5.62815 6.36737 
467 1 1 2.2823 5.06407 7.27361 
487 1 1 2.4432 6.26472 7.20619 
70 1 1 4.01867 5.82584 8.0752 
89 1 1 3.22363 6.54091 0.178535 
472 1 1 3.24488 5.73234 7.37812 
491 1 1 4.33574 6.50539 7.24841 
489 1 1 3.34852 6.35981 6.47842 
93 1 1 4.81072 6.55263 0.086088 
476 1 1 4.92696 5.64774 7.34246 
479 1 1 7.2014 4.93715 7.24837 
78 1 1 7.15309 5.66695 8.03975 
480 1 1 6.41257 5.64886 7.21085 
82 1 1 0.808906 7.29514 7.8813 
403 1 1 0.908701 0.0718133 7.01836 
483 1 1 0.757581 6.51299 7.25483 
488 1 1 1.58449 7.3026 7.2208 
9 1 1 3.13987 7.83208 0.14147 
407 1 1 2.40089 8.02496 7.29733 
486 1 1 2.39383 7.09767 6.43507 
492 1 1 3.12509 7.22982 7.33842 
90 1 1 4.04634 7.19893 7.93964 
411 1 1 3.95321 8.06717 7.33202 
493 1 1 5.01562 6.52875 6.44361 
495 1 1 5.8554 6.43137 7.28249 
496 1 1 4.93094 7.31787 7.19206 
94 1 1 5.72931 7.19639 0.0342474 
500 1 1 6.48078 7.20041 7.10052 
497 1 1 6.52227 6.44017 6.3868 
484 1 1 8.08428 7.32469 7.20526 
499 1 1 7.21414 6.37646 7.35295 
