ITEM: TIMESTEP
10000
ITEM: NUMBER OF ATOMS
500
ITEM: BOX BOUNDS pp pp pp
0 8.07388
0 8.07388
0 8.07388
ITEM: ATOMS id type mass x y z 
102 1 1 0.839243 0.708854 1.54374 
2 1 1 0.780036 0.831848 0.0313857 
8 1 1 1.51279 0.768501 0.73487 
3 1 1 0.675808 0.101234 0.748268 
29 1 1 3.08851 1.48404 0.0567574 
12 1 1 3.12418 0.566029 0.865807 
129 1 1 3.01222 1.54549 1.2901 
10 1 1 4.02716 0.631958 0.0122551 
31 1 1 3.96982 1.46473 1.00107 
16 1 1 4.93537 0.806484 0.6719 
114 1 1 5.63798 0.823297 1.51792 
35 1 1 5.59715 1.5292 0.703403 
4 1 1 8.04672 0.969415 0.785537 
37 1 1 6.53142 1.6133 0.011369 
20 1 1 6.57071 0.910075 0.77004 
19 1 1 7.35691 0.112437 0.865957 
23 1 1 0.925485 1.65879 0.875249 
24 1 1 0.144155 2.31943 0.886781 
22 1 1 0.801971 2.3001 0.0233776 
27 1 1 2.23883 1.68431 0.649732 
28 1 1 1.72932 2.61316 0.914916 
32 1 1 2.93134 2.4449 0.652381 
149 1 1 3.08226 3.20317 1.54522 
26 1 1 2.23156 2.72043 0.0780917 
36 1 1 4.83432 2.46472 0.878921 
130 1 1 3.85347 2.38338 1.32819 
49 1 1 3.32978 3.16941 0.0703689 
30 1 1 3.89541 2.25051 0.2873 
53 1 1 4.82457 3.17947 0.0468774 
33 1 1 4.72903 1.68552 0.0795109 
34 1 1 5.56633 2.41507 0.0606899 
39 1 1 7.2503 1.63494 0.987064 
40 1 1 6.54595 2.44879 0.955988 
59 1 1 7.42911 2.98461 1.07385 
38 1 1 7.26891 2.38661 0.074891 
43 1 1 0.795569 3.26414 0.726199 
41 1 1 0.0786262 3.32367 0.0193597 
142 1 1 0.802716 4.11434 1.4878 
42 1 1 0.746102 4.139 0.103701 
48 1 1 1.68738 4.34682 0.661062 
45 1 1 1.67096 3.54434 0.0842996 
47 1 1 2.36116 3.51485 0.726963 
52 1 1 3.21165 3.91031 0.64063 
145 1 1 1.68415 3.38906 1.60285 
51 1 1 3.99155 3.25971 0.788837 
71 1 1 3.89217 4.7491 0.91497 
50 1 1 4.15022 4.16093 0.111253 
56 1 1 4.8763 3.95949 0.79631 
153 1 1 4.92942 3.27818 1.50126 
55 1 1 5.68523 3.26522 0.871763 
154 1 1 5.68112 4.18209 1.56029 
54 1 1 5.6834 4.02638 0.0178904 
75 1 1 5.66307 4.80538 0.698719 
44 1 1 8.03361 4.20853 0.768982 
60 1 1 6.65113 3.66268 0.778477 
79 1 1 7.12323 4.77646 0.78064 
158 1 1 7.26194 4.12619 1.61067 
58 1 1 7.35362 3.97815 0.00708387 
63 1 1 0.713615 4.96337 0.746701 
62 1 1 0.658338 5.68458 0.00517284 
83 1 1 0.917362 6.25457 0.768719 
162 1 1 0.759476 5.57266 1.57648 
181 1 1 0.154684 6.40741 1.35054 
67 1 1 2.63229 4.89324 0.867166 
68 1 1 1.81891 5.47671 0.773921 
72 1 1 3.22563 5.86647 0.825467 
69 1 1 3.20939 4.96085 0.0846657 
66 1 1 2.50836 5.86163 0.0578374 
91 1 1 4.1336 6.364 0.725905 
76 1 1 4.86778 5.70849 0.814427 
174 1 1 5.54501 5.74509 1.52499 
74 1 1 5.67853 5.62364 0.0831078 
97 1 1 6.36767 6.41479 0.147026 
61 1 1 7.99418 4.89215 0.0539728 
81 1 1 7.96926 6.40427 0.0545654 
177 1 1 6.58873 5.13528 1.59999 
64 1 1 7.96138 5.59154 0.753135 
80 1 1 6.51829 5.68807 0.851177 
178 1 1 7.32708 5.78706 1.61448 
182 1 1 0.915586 7.26651 1.52779 
101 1 1 0.10592 7.97502 1.61205 
5 1 1 1.56294 7.89965 0.0780361 
105 1 1 1.59496 8.00893 1.61351 
88 1 1 1.51429 7.08802 0.791303 
87 1 1 2.28516 6.46058 0.906838 
7 1 1 2.29119 7.96709 0.817555 
186 1 1 2.38515 7.22622 1.52465 
92 1 1 3.09908 7.05073 0.791114 
86 1 1 2.3589 7.14612 0.017889 
11 1 1 3.9224 8.03181 0.880198 
96 1 1 4.68949 7.23919 0.789235 
113 1 1 4.70832 7.99686 1.57752 
95 1 1 5.6505 6.63558 0.762832 
15 1 1 5.78202 7.99885 0.796456 
197 1 1 6.42225 6.60704 1.60533 
194 1 1 5.46067 7.24327 1.56344 
99 1 1 7.22907 6.49774 0.724236 
100 1 1 6.62926 7.39483 0.713169 
84 1 1 8.05778 7.37059 0.775618 
117 1 1 6.50871 8.03041 1.58276 
98 1 1 7.41027 7.26894 0.0676119 
123 1 1 0.702855 1.53538 2.35376 
108 1 1 1.57875 0.780472 2.38492 
221 1 1 0.142453 1.48059 3.21317 
106 1 1 2.28721 0.71516 1.70707 
127 1 1 2.45372 1.59055 2.35436 
206 1 1 2.42994 0.661933 3.11395 
112 1 1 3.21822 0.759335 2.37318 
125 1 1 1.65435 1.50777 1.66147 
225 1 1 1.62272 1.56358 3.2025 
110 1 1 4.06149 0.706695 1.72561 
116 1 1 4.83897 0.762009 2.42649 
210 1 1 3.93806 0.709338 3.17049 
233 1 1 4.75456 1.5959 3.11548 
213 1 1 4.66825 0.00657178 3.15413 
133 1 1 4.85082 1.47066 1.65292 
137 1 1 6.4158 1.51037 1.62032 
217 1 1 6.39494 0.000835055 3.18213 
120 1 1 6.43484 0.689719 2.48296 
135 1 1 5.65963 1.46803 2.40959 
115 1 1 5.45054 0.00617327 2.43613 
121 1 1 8.05442 1.53017 1.6267 
118 1 1 7.2354 0.742458 1.61646 
104 1 1 7.9917 0.797877 2.44413 
139 1 1 7.24958 1.54676 2.49357 
119 1 1 7.19408 0.0287854 2.40602 
141 1 1 0.120629 3.1891 1.67214 
122 1 1 0.990522 2.38362 1.74745 
222 1 1 0.791505 2.44473 3.20196 
124 1 1 0.0179949 2.32957 2.49275 
241 1 1 0.0537947 3.21792 3.21045 
126 1 1 2.37128 2.23879 1.6318 
229 1 1 3.20751 1.66569 3.19264 
128 1 1 1.70012 2.32501 2.44985 
132 1 1 3.22035 2.37924 2.25168 
131 1 1 3.92851 1.6153 2.34542 
249 1 1 3.27656 3.07667 3.21329 
230 1 1 4.05388 2.3187 3.13852 
136 1 1 4.79344 2.37311 2.2719 
151 1 1 3.95328 3.10354 2.31373 
134 1 1 5.76486 2.47058 1.69894 
234 1 1 5.50647 2.32441 3.05149 
138 1 1 7.29638 2.26227 1.78393 
140 1 1 6.47963 2.3515 2.53359 
159 1 1 7.38582 3.18507 2.39948 
238 1 1 7.26745 2.51648 3.16898 
143 1 1 0.829656 3.24929 2.44763 
245 1 1 1.5885 3.27677 3.18354 
242 1 1 0.79748 3.96925 3.18881 
148 1 1 1.44147 4.12043 2.32693 
144 1 1 0.00163674 3.99534 2.43277 
146 1 1 2.60068 4.13383 1.66959 
147 1 1 2.48508 3.24488 2.30646 
246 1 1 2.32153 4.00102 3.13436 
152 1 1 3.19862 4.03573 2.52091 
150 1 1 4.05802 3.96064 1.65538 
171 1 1 3.92414 4.75632 2.37197 
250 1 1 3.99852 4.01992 3.15711 
155 1 1 5.5991 3.28895 2.35316 
253 1 1 4.87138 3.25969 3.07611 
156 1 1 4.84698 3.98249 2.35233 
175 1 1 5.71609 4.77667 2.49744 
254 1 1 5.64512 3.99988 3.18585 
160 1 1 6.43204 4.03327 2.25787 
273 1 1 4.87722 4.69539 3.19528 
157 1 1 6.5194 3.23351 1.72631 
257 1 1 6.59762 3.4137 3.1307 
258 1 1 7.37737 4.03828 3.22835 
277 1 1 6.55082 4.63456 3.15853 
163 1 1 0.808863 4.98928 2.33881 
168 1 1 1.52734 5.74049 2.6053 
183 1 1 0.723949 6.32714 2.49343 
165 1 1 1.643 4.90579 1.66329 
166 1 1 2.37171 5.82488 1.68473 
169 1 1 3.12317 4.94625 1.7086 
269 1 1 3.14608 4.85968 3.21845 
167 1 1 2.3772 4.94718 2.49254 
266 1 1 2.33874 5.56617 3.21162 
172 1 1 3.21915 5.68277 2.55068 
289 1 1 2.9729 6.3129 3.2221 
173 1 1 4.77288 4.8773 1.6652 
189 1 1 3.2725 6.33954 1.8103 
170 1 1 4.02328 5.6121 1.69439 
270 1 1 4.03715 5.49605 3.14942 
176 1 1 4.90011 5.63363 2.32349 
180 1 1 6.33887 5.67034 2.41686 
274 1 1 5.65579 5.75289 3.137 
179 1 1 7.29814 4.85679 2.45097 
161 1 1 7.96413 4.87946 1.71445 
164 1 1 7.92203 5.77341 2.38331 
278 1 1 7.05279 5.76891 3.18319 
185 1 1 1.55718 6.47376 1.73549 
103 1 1 0.697425 8.05912 2.49346 
188 1 1 1.53654 7.29568 2.40841 
184 1 1 0.034335 7.12225 2.44385 
282 1 1 0.794759 7.29259 3.21846 
109 1 1 3.2042 7.85915 1.74853 
107 1 1 2.46352 7.86505 2.43654 
285 1 1 1.76057 6.48887 3.21886 
187 1 1 2.38002 6.63515 2.46 
205 1 1 1.68242 8.03768 3.21143 
191 1 1 4.09438 6.47194 2.41993 
111 1 1 3.97225 7.97071 2.42596 
190 1 1 3.97218 7.2092 1.70702 
192 1 1 3.23433 7.12251 2.53865 
196 1 1 4.82181 7.25807 2.37604 
193 1 1 4.77182 6.5342 1.63444 
195 1 1 5.638 6.47063 2.50386 
200 1 1 6.29031 7.41419 2.30181 
198 1 1 7.289 7.26037 1.68516 
199 1 1 7.11068 6.52403 2.39266 
298 1 1 7.29445 7.31761 3.16365 
202 1 1 0.848599 0.695723 3.24949 
208 1 1 1.45312 0.863625 4.02466 
204 1 1 0.130477 0.823595 4.13517 
306 1 1 2.48995 0.815275 4.76127 
212 1 1 3.17283 0.867733 3.92027 
329 1 1 3.31713 1.48238 4.76353 
231 1 1 4.03901 1.43274 3.97739 
214 1 1 5.55139 0.721024 3.24437 
216 1 1 4.88025 0.798211 4.14943 
220 1 1 6.44016 0.690254 3.98261 
235 1 1 5.52194 1.52943 3.88673 
237 1 1 6.43695 1.42853 3.2612 
218 1 1 7.1872 0.721119 3.24474 
239 1 1 7.37379 1.53679 3.78997 
318 1 1 7.27549 0.998321 4.68346 
223 1 1 0.816327 1.71149 4.1485 
243 1 1 0.801191 3.1801 4.10717 
228 1 1 1.58302 2.47817 4.02717 
322 1 1 0.844913 2.50374 4.83954 
226 1 1 2.42896 2.4916 3.2685 
227 1 1 2.57763 1.64309 4.00469 
326 1 1 2.65978 2.51329 4.73901 
232 1 1 3.36289 2.42897 3.93175 
251 1 1 4.0507 3.22704 3.90576 
236 1 1 4.62206 2.35444 3.95577 
330 1 1 4.08251 2.26026 4.777 
255 1 1 5.58448 3.18726 3.90591 
240 1 1 6.40585 2.39832 3.73728 
337 1 1 6.36359 1.74702 4.71567 
353 1 1 4.90873 3.19476 4.75012 
334 1 1 5.74125 2.55259 4.82327 
224 1 1 8.00842 2.37678 3.89836 
338 1 1 7.28494 2.20765 4.80623 
357 1 1 6.71662 3.12261 4.65278 
248 1 1 1.58105 3.99997 3.93903 
244 1 1 0.0384659 3.93206 3.95112 
247 1 1 2.40082 3.25031 4.00301 
252 1 1 3.03984 4.09212 4.09945 
346 1 1 2.30792 4.10793 4.81348 
271 1 1 3.90701 4.70463 3.90232 
350 1 1 3.98041 4.14915 4.79669 
256 1 1 4.81993 3.95576 4.03959 
275 1 1 5.56713 4.71091 3.98238 
377 1 1 6.4042 4.80867 4.72595 
354 1 1 5.51298 4.0662 4.77445 
259 1 1 7.33901 3.25336 3.93739 
260 1 1 6.4667 4.02037 4.01798 
358 1 1 7.20153 4.04967 4.81352 
263 1 1 0.770724 4.8543 4.01707 
265 1 1 1.49065 4.85354 3.29483 
262 1 1 0.799707 5.70974 3.34659 
261 1 1 0.0128891 4.85199 3.30039 
268 1 1 1.59495 5.78691 4.00462 
264 1 1 0.0109094 5.76038 4.26012 
267 1 1 2.30945 4.93336 4.20067 
287 1 1 2.5111 6.45754 4.12296 
272 1 1 3.18223 5.59442 3.90296 
389 1 1 3.22526 6.25849 4.7944 
291 1 1 3.87206 6.29162 3.94999 
370 1 1 4.24443 5.53246 4.56596 
293 1 1 4.65495 6.35042 3.24134 
276 1 1 5.07877 5.66129 3.92538 
280 1 1 6.316 5.57095 3.81886 
279 1 1 7.37763 4.97469 4.16123 
281 1 1 7.97577 6.35151 3.34065 
378 1 1 7.2107 5.79394 4.72701 
201 1 1 0.00874756 8.06148 3.35826 
203 1 1 0.892579 7.93804 4.00602 
283 1 1 0.853726 6.48812 4.19387 
284 1 1 0.0742246 7.14704 4.07126 
301 1 1 0.0823378 8.07304 4.80595 
286 1 1 2.44972 7.22944 3.27486 
207 1 1 2.48985 8.0595 4.09792 
288 1 1 1.71296 7.19093 4.05879 
305 1 1 1.73557 8.04192 4.76995 
209 1 1 3.25024 7.9736 3.27139 
211 1 1 4.08435 8.02566 4.08719 
290 1 1 3.97668 7.25043 3.36121 
292 1 1 3.32109 7.21174 4.03164 
294 1 1 5.70989 7.36423 3.29798 
295 1 1 5.5186 6.52214 4.06953 
296 1 1 4.84965 7.35493 4.0411 
215 1 1 5.50286 8.06101 4.19057 
300 1 1 6.3822 7.54023 4.15653 
297 1 1 6.50696 6.68802 3.47941 
219 1 1 7.32523 8.04978 4.07197 
299 1 1 7.25088 6.76421 4.20869 
302 1 1 0.80517 0.861858 4.90425 
321 1 1 0.0903488 1.57815 4.8687 
304 1 1 0.203671 0.89068 5.75286 
303 1 1 0.894009 0.0874119 5.65608 
309 1 1 3.21484 0.0229918 4.89592 
308 1 1 1.68664 0.789463 5.70218 
327 1 1 2.4211 1.54211 5.59041 
307 1 1 2.43129 0.116645 5.68775 
409 1 1 3.19453 0.00891201 6.37358 
312 1 1 3.27886 0.846198 5.65021 
310 1 1 4.08285 0.812371 4.88088 
311 1 1 3.8901 0.0491261 5.64611 
331 1 1 4.01557 1.61091 5.72186 
410 1 1 4.05933 0.716289 6.44242 
316 1 1 4.90758 0.949724 5.55437 
314 1 1 5.85029 0.842789 4.87573 
315 1 1 5.53761 0.123143 5.73348 
320 1 1 6.59315 1.06428 5.62132 
319 1 1 7.43732 0.335426 5.65647 
317 1 1 6.56999 0.0693794 4.8632 
323 1 1 0.950371 1.79712 5.67335 
324 1 1 0.171754 2.49931 5.68902 
421 1 1 0.0793713 1.76952 6.41532 
325 1 1 1.65548 1.61485 4.85425 
328 1 1 1.80756 2.42819 5.75568 
332 1 1 3.17492 2.29318 5.70737 
336 1 1 4.76632 2.39511 5.63119 
333 1 1 4.93899 1.71926 4.89496 
335 1 1 5.71315 1.71246 5.6851 
355 1 1 5.61391 2.99411 5.70672 
437 1 1 6.40973 1.7187 6.41441 
341 1 1 8.0388 3.21579 4.90831 
340 1 1 6.57698 2.26947 5.62051 
339 1 1 7.55049 1.68711 5.61465 
438 1 1 7.24944 2.40398 6.36523 
359 1 1 7.37381 3.13186 5.61795 
343 1 1 0.899313 3.34838 5.7575 
342 1 1 0.848223 4.05298 4.86361 
344 1 1 0.161234 3.9339 5.76886 
363 1 1 0.83796 4.80847 5.77484 
345 1 1 1.71808 3.29884 4.85142 
349 1 1 3.03138 3.47378 4.90193 
365 1 1 1.65772 4.83407 5.06783 
369 1 1 3.10301 4.83453 4.85546 
347 1 1 2.49962 3.30758 5.82856 
348 1 1 1.64342 4.04914 5.67203 
352 1 1 3.12706 4.11158 5.77827 
367 1 1 2.46569 4.79255 5.71074 
351 1 1 3.97508 3.29685 5.44365 
373 1 1 4.75024 4.74961 5.03082 
356 1 1 4.82723 3.94316 5.62687 
449 1 1 3.38799 3.23796 6.35024 
453 1 1 4.61977 3.23347 6.41362 
450 1 1 4.09768 4.14979 6.43836 
473 1 1 4.95916 4.77471 6.42854 
360 1 1 6.39254 3.97666 5.6356 
375 1 1 5.56115 4.70933 5.66843 
477 1 1 6.31882 4.80632 6.37497 
458 1 1 7.3946 3.96026 6.27538 
379 1 1 7.2493 4.76245 5.69696 
362 1 1 0.872443 5.71287 4.85881 
361 1 1 0.0968205 4.94398 4.94987 
368 1 1 1.55386 5.55563 5.76852 
462 1 1 0.657982 5.68481 6.36805 
461 1 1 0.0197995 4.87302 6.36538 
383 1 1 0.748515 6.38522 5.60057 
485 1 1 1.57103 6.43295 6.44895 
366 1 1 2.35976 5.64228 4.85517 
385 1 1 1.7256 6.41516 5.10598 
469 1 1 3.22418 4.92795 6.4451 
372 1 1 3.17167 5.58059 5.64216 
387 1 1 2.55642 6.40133 5.70384 
371 1 1 3.88838 4.85867 5.61407 
391 1 1 4.18275 6.43622 5.65456 
376 1 1 4.80647 5.55169 5.65533 
470 1 1 4.12125 5.58609 6.36387 
393 1 1 4.91634 6.3824 4.91581 
374 1 1 5.78735 5.66629 4.85039 
395 1 1 5.67714 6.39171 5.65725 
474 1 1 5.6937 5.68016 6.43822 
364 1 1 7.98767 5.77557 5.60925 
380 1 1 6.52642 5.68172 5.60902 
478 1 1 7.29104 5.76459 6.42572 
382 1 1 0.896064 7.36388 4.94796 
482 1 1 0.934518 7.22426 6.41794 
381 1 1 0.0149184 6.66336 5.01533 
384 1 1 0.126577 7.51855 5.73712 
481 1 1 0.012942 6.52184 6.38946 
388 1 1 1.70999 7.42067 5.72326 
386 1 1 2.45168 7.27304 4.95157 
313 1 1 4.72512 8.04463 4.93407 
392 1 1 3.34016 7.03075 5.52338 
390 1 1 4.22281 7.20127 4.89021 
490 1 1 3.97392 7.16902 6.34685 
394 1 1 5.60468 7.30054 4.89064 
396 1 1 5.0212 7.20437 5.69464 
494 1 1 5.79715 7.21972 6.39754 
397 1 1 6.39993 6.49635 4.86444 
400 1 1 6.46652 7.393 5.57724 
398 1 1 7.35979 7.44955 4.97519 
399 1 1 7.21898 6.51964 5.65914 
498 1 1 7.14381 7.34362 6.38111 
21 1 1 0.00180282 1.58523 8.00339 
402 1 1 0.866447 0.957516 6.62981 
405 1 1 1.60171 0.217702 6.54398 
401 1 1 0.278505 0.206343 6.49104 
6 1 1 2.42177 0.663975 8.05709 
406 1 1 2.48773 0.787805 6.46538 
408 1 1 1.68139 0.86259 7.31781 
412 1 1 3.18684 0.662397 7.31911 
13 1 1 4.8267 0.0618973 8.039 
431 1 1 4.06907 1.60305 7.26881 
433 1 1 4.70483 1.57965 6.48438 
416 1 1 4.76577 0.841562 7.31251 
429 1 1 3.24524 1.57309 6.48501 
14 1 1 5.67601 0.735968 8.02448 
414 1 1 5.50057 0.947999 6.49293 
420 1 1 6.3991 0.892199 7.24412 
413 1 1 4.95072 0.00255301 6.50784 
417 1 1 6.35821 0.00461585 6.55982 
415 1 1 5.56456 0.0134023 7.2737 
18 1 1 7.14191 0.865968 7.99609 
17 1 1 6.51956 0.0967229 8.01263 
418 1 1 7.27927 0.916051 6.47171 
404 1 1 7.90113 0.98842 7.18334 
1 1 1 7.94415 0.131117 7.92606 
419 1 1 7.24049 0.193125 7.1641 
422 1 1 0.935878 2.48597 6.51777 
441 1 1 0.165055 3.18857 6.50309 
25 1 1 1.53099 1.63948 7.86241 
423 1 1 0.696255 1.64421 7.28254 
424 1 1 0.098622 2.46608 7.25343 
443 1 1 0.962979 3.21982 7.464 
425 1 1 1.7997 1.67999 6.49866 
427 1 1 2.48338 1.66016 7.30962 
428 1 1 1.65078 2.57271 7.26006 
426 1 1 2.5961 2.60937 6.56354 
432 1 1 3.11126 2.41633 7.44975 
430 1 1 3.96357 2.42623 6.47053 
436 1 1 4.7746 2.42793 7.34878 
451 1 1 4.02952 3.15424 7.34331 
57 1 1 6.37868 3.11299 7.88568 
434 1 1 5.5674 2.22866 6.52768 
435 1 1 5.51534 1.65358 7.38786 
440 1 1 6.31723 2.24257 7.32563 
457 1 1 6.41889 3.00263 6.51343 
455 1 1 5.55286 3.05033 7.24792 
439 1 1 7.27546 1.81481 7.24465 
459 1 1 7.34441 3.17568 7.0554 
442 1 1 0.874599 4.03539 6.61707 
448 1 1 1.52169 4.32908 7.39338 
445 1 1 1.79465 3.43062 6.55296 
446 1 1 2.60422 4.13814 6.67713 
465 1 1 1.66206 4.81975 6.57704 
447 1 1 2.58932 3.24634 7.36858 
46 1 1 2.51665 4.09406 7.96421 
452 1 1 3.39953 3.86432 7.33417 
471 1 1 4.14087 4.79281 7.2695 
454 1 1 5.74522 3.95627 6.46655 
456 1 1 4.89716 3.90911 7.18381 
460 1 1 6.37192 4.03106 7.31888 
475 1 1 5.56321 4.78082 7.23331 
73 1 1 4.92704 4.83752 7.96713 
444 1 1 7.941 4.10293 7.16336 
77 1 1 6.50166 4.78609 7.94537 
85 1 1 1.61097 6.45782 8.05791 
463 1 1 0.770268 4.97134 7.25064 
468 1 1 1.38765 5.79282 7.2754 
464 1 1 0.00532981 5.60079 7.20382 
65 1 1 1.64575 5.13435 7.98129 
466 1 1 2.41067 5.67066 6.50844 
467 1 1 2.34201 5.08022 7.32983 
487 1 1 2.26435 6.39387 7.29635 
70 1 1 4.16384 5.5278 7.96723 
89 1 1 3.3542 6.35831 7.96925 
472 1 1 3.35748 5.60111 7.22461 
491 1 1 4.14627 6.37188 7.17853 
489 1 1 3.46978 6.33345 6.55784 
93 1 1 4.90796 6.35877 8.04735 
476 1 1 4.92522 5.58759 7.20431 
479 1 1 7.26147 4.89156 7.02807 
78 1 1 7.19415 5.61901 8.0088 
480 1 1 6.46135 5.60832 7.16664 
82 1 1 0.73353 7.27503 8.06625 
403 1 1 0.937509 8.05406 7.26217 
483 1 1 0.671611 6.51744 7.37862 
488 1 1 1.49638 7.14948 7.37873 
9 1 1 3.10081 7.87887 7.95853 
407 1 1 2.28975 8.05286 7.26335 
486 1 1 2.40867 7.27185 6.56418 
492 1 1 3.16315 7.04163 7.25169 
90 1 1 3.99075 7.2232 8.00462 
411 1 1 4.05336 7.96809 7.2928 
493 1 1 4.96585 6.58952 6.58628 
495 1 1 5.7704 6.54333 7.40132 
496 1 1 4.98837 7.336 7.26381 
94 1 1 5.62021 7.30695 7.99551 
500 1 1 6.38615 7.3306 7.33453 
497 1 1 6.51705 6.52651 6.50102 
484 1 1 8.06034 7.36987 7.32211 
499 1 1 7.22398 6.59015 7.29423 
