ITEM: TIMESTEP
14000
ITEM: NUMBER OF ATOMS
500
ITEM: BOX BOUNDS pp pp pp
0 8.07388
0 8.07388
0 8.07388
ITEM: ATOMS id type mass x y z 
23 1 1 0.855249 1.60796 0.753483 
25 1 1 1.58097 1.63167 7.91591 
2 1 1 0.84154 0.93504 7.94547 
8 1 1 1.62352 0.70317 0.978368 
106 1 1 2.34886 0.87443 1.6711 
6 1 1 2.38846 0.988584 8.04664 
12 1 1 3.1153 0.845701 0.86909 
29 1 1 3.2009 1.61338 0.153044 
113 1 1 4.97744 0.145265 1.7661 
16 1 1 4.90436 0.945214 0.942702 
20 1 1 6.37539 0.903406 0.823271 
133 1 1 4.94041 1.76535 1.78701 
35 1 1 5.60258 1.609 0.70684 
4 1 1 0.211011 0.696297 0.796904 
118 1 1 7.25395 0.700905 1.60989 
1 1 1 0.176966 -0.0315852 -0.00168972 
137 1 1 6.47254 1.68483 1.55922 
24 1 1 0.109196 2.3685 1.01332 
28 1 1 1.67209 2.36942 0.591929 
122 1 1 1.06165 2.4333 1.54391 
22 1 1 0.739832 2.47523 8.03957 
27 1 1 2.48719 1.62047 0.914598 
47 1 1 2.38355 3.41795 0.67347 
32 1 1 3.40837 2.46213 0.856672 
26 1 1 2.61541 2.52588 0.0976877 
31 1 1 4.07025 1.66207 0.950559 
30 1 1 4.03222 2.43496 0.073316 
51 1 1 4.10287 3.27364 0.858249 
36 1 1 4.80662 2.53138 0.884655 
55 1 1 5.6301 3.05481 0.750993 
134 1 1 5.72306 2.46018 1.59732 
157 1 1 6.51063 3.17375 1.63327 
37 1 1 6.48762 1.60718 0.0318891 
34 1 1 5.756 2.46273 7.97402 
39 1 1 7.28028 1.53666 0.782807 
40 1 1 6.46699 2.38762 0.759603 
121 1 1 0.0466235 1.43931 1.56402 
138 1 1 7.2667 2.38545 1.4854 
21 1 1 0.0604581 1.5701 8.08255 
43 1 1 0.643399 3.22978 0.781147 
48 1 1 1.56238 4.13107 0.746362 
42 1 1 0.443553 4.13304 0.023799 
63 1 1 0.790334 4.92027 0.774942 
45 1 1 1.42239 3.30234 0.0773729 
67 1 1 2.5039 4.85287 0.711453 
52 1 1 3.27663 3.87298 0.681379 
69 1 1 3.36977 4.76168 0.069722 
71 1 1 4.25264 4.81574 0.881282 
50 1 1 4.13066 4.06857 0.0587052 
56 1 1 4.93671 4.08869 0.690842 
75 1 1 5.75629 4.75008 0.872006 
57 1 1 6.55492 3.17428 8.0028 
173 1 1 4.96956 4.72341 1.58963 
60 1 1 6.41803 4.02148 0.928435 
59 1 1 7.33436 3.24203 0.779946 
44 1 1 7.95439 4.09946 0.844756 
161 1 1 7.23757 4.82147 0.863077 
158 1 1 7.21949 3.96956 1.60888 
41 1 1 7.942 3.27334 7.99069 
62 1 1 0.725529 5.60128 7.92004 
83 1 1 0.746688 6.53735 0.787621 
162 1 1 0.799612 5.71552 1.59363 
65 1 1 1.42939 4.8481 7.89748 
85 1 1 1.57316 6.50746 0.130345 
68 1 1 1.54184 5.58727 0.748126 
87 1 1 2.32043 6.51608 0.88746 
66 1 1 2.34288 5.65514 0.00102354 
185 1 1 1.54538 6.56387 1.69461 
72 1 1 3.36263 5.45595 0.866869 
91 1 1 4.16116 6.61189 0.768699 
89 1 1 3.22046 6.30064 0.298029 
93 1 1 4.85297 6.33162 0.165392 
76 1 1 4.90201 5.58004 0.920892 
95 1 1 5.64351 6.54884 1.14888 
80 1 1 6.33407 5.70335 0.99869 
97 1 1 6.44282 6.39459 0.180235 
74 1 1 5.66664 5.74748 -0.01137 
64 1 1 8.0535 5.76202 0.713251 
99 1 1 7.26388 6.401 0.806342 
61 1 1 7.9599 4.95514 -0.00587293 
79 1 1 7.03032 5.61062 0.0199777 
81 1 1 7.83403 6.35874 7.92031 
3 1 1 0.900652 7.91349 0.906323 
82 1 1 0.87838 7.33529 0.157756 
182 1 1 0.639053 7.20232 1.6755 
7 1 1 2.55391 0.0169056 0.660536 
5 1 1 1.52251 0.0783123 0.0825039 
88 1 1 1.78066 7.37003 0.763747 
86 1 1 2.66138 7.18228 8.03031 
109 1 1 3.17226 0.100624 1.62216 
11 1 1 4.10315 0.141814 1.09128 
92 1 1 3.30326 7.38141 0.772754 
96 1 1 4.98557 7.34032 1.00764 
15 1 1 5.66367 0.0844954 0.843274 
17 1 1 6.43763 0.00397249 0.1472 
181 1 1 8.02771 6.35641 1.53858 
100 1 1 6.43002 7.28415 0.859095 
19 1 1 7.24521 7.89025 0.867638 
84 1 1 7.95216 7.17093 0.850603 
117 1 1 6.51721 0.115417 1.51639 
102 1 1 0.762898 0.667327 1.66741 
101 1 1 0.00237372 8.05011 1.60062 
202 1 1 0.971438 0.65647 3.19513 
221 1 1 0.12653 1.61145 3.08405 
108 1 1 1.55764 0.773106 2.408 
107 1 1 2.44303 0.124138 2.47177 
206 1 1 2.37484 0.958831 3.37148 
209 1 1 3.1324 0.135859 3.37889 
110 1 1 4.10941 0.971207 1.747 
112 1 1 3.27749 0.893089 2.45279 
233 1 1 4.71475 1.66761 3.27323 
111 1 1 4.0095 0.136973 2.34302 
114 1 1 5.77767 0.922758 1.70316 
116 1 1 5.02499 0.929463 2.57968 
120 1 1 6.60816 0.802429 2.53029 
135 1 1 5.74831 1.73346 2.6406 
104 1 1 0.0965136 0.679453 2.38563 
139 1 1 7.37034 1.40036 2.46011 
119 1 1 7.31876 7.95216 2.54777 
201 1 1 0.0599576 8.01595 3.25666 
123 1 1 0.966698 1.63022 2.27074 
125 1 1 1.68713 1.55122 1.57884 
128 1 1 1.80875 2.47908 2.29788 
124 1 1 0.0127976 2.22841 2.17822 
225 1 1 1.62209 1.59164 3.08006 
126 1 1 2.52014 2.51017 1.44627 
127 1 1 2.47379 1.69477 2.43746 
226 1 1 2.33442 2.44896 3.36907 
129 1 1 3.25607 1.54858 1.61069 
131 1 1 3.89082 1.72492 2.43859 
130 1 1 4.06628 2.42744 1.7483 
132 1 1 3.16778 2.43016 2.47576 
151 1 1 3.95698 3.18348 2.57739 
136 1 1 4.89735 2.4505 2.58032 
234 1 1 5.58059 2.55781 3.30721 
140 1 1 6.59625 2.3447 2.40267 
238 1 1 7.37626 2.46454 3.08097 
145 1 1 1.91038 3.33242 1.58791 
142 1 1 0.814636 4.01107 1.44345 
143 1 1 0.914514 3.21705 2.22255 
144 1 1 8.08047 3.99368 2.39631 
147 1 1 2.50586 3.26355 2.47116 
148 1 1 1.75076 4.0142 2.50735 
146 1 1 2.57049 4.13981 1.49313 
165 1 1 1.56601 4.82076 1.57711 
167 1 1 2.44443 4.78041 2.45504 
149 1 1 3.22796 3.15983 1.64825 
169 1 1 3.39626 4.72917 1.65321 
153 1 1 4.80304 3.16698 1.73889 
150 1 1 4.21377 4.01639 1.60682 
152 1 1 3.36705 4.08458 2.47584 
171 1 1 3.8973 4.93169 2.4932 
250 1 1 3.91926 3.7295 3.43536 
154 1 1 5.63958 3.95807 1.60447 
155 1 1 5.87531 3.11977 2.4941 
156 1 1 4.82596 3.91936 2.41995 
175 1 1 5.69701 4.66542 2.41532 
141 1 1 7.98625 3.20926 1.60528 
159 1 1 7.34943 3.23597 2.37528 
160 1 1 6.49203 3.88748 2.5441 
261 1 1 8.05714 4.81963 3.25041 
242 1 1 0.857946 4.62209 2.22538 
183 1 1 0.742566 6.46386 2.37148 
164 1 1 8.08943 5.61206 2.34836 
163 1 1 0.0694136 4.78791 1.5022 
262 1 1 0.800676 5.65194 3.0876 
168 1 1 1.558 5.64038 2.35134 
166 1 1 2.39964 5.63025 1.66827 
265 1 1 1.64698 4.95767 3.21575 
193 1 1 4.71061 6.42132 1.65331 
172 1 1 3.26578 5.68408 2.41179 
170 1 1 4.11095 5.4982 1.68676 
176 1 1 4.72105 5.63025 2.49121 
174 1 1 5.54657 5.63518 1.66958 
177 1 1 6.37853 4.79745 1.70899 
195 1 1 5.61971 6.55327 2.21977 
274 1 1 5.71289 5.5264 3.12511 
179 1 1 7.19537 4.80123 2.36863 
180 1 1 6.57782 5.64416 2.41269 
178 1 1 7.27896 5.56419 1.59002 
297 1 1 6.41268 6.63078 3.23806 
103 1 1 0.79183 7.86648 2.54838 
282 1 1 0.791049 7.15412 3.20237 
184 1 1 8.03216 7.26867 2.51767 
105 1 1 1.60585 7.91879 1.72628 
187 1 1 2.39072 6.40947 2.48127 
188 1 1 1.66104 7.22486 2.58394 
186 1 1 2.44801 7.24373 1.61297 
189 1 1 3.27521 6.32188 1.56324 
286 1 1 2.39015 7.19269 3.31666 
190 1 1 3.88764 7.40061 1.68608 
191 1 1 4.0669 6.42134 2.38622 
192 1 1 3.09911 7.42954 2.50831 
196 1 1 4.77829 7.34029 2.25643 
197 1 1 6.50523 6.4868 1.6718 
194 1 1 5.6845 7.45165 1.74693 
115 1 1 5.67426 0.213611 2.4649 
200 1 1 6.51035 7.21903 2.40136 
198 1 1 7.24644 7.21674 1.6362 
199 1 1 7.42898 6.48311 2.35063 
298 1 1 7.29895 7.15568 3.28014 
302 1 1 0.768694 0.674516 4.93099 
223 1 1 0.776591 1.56292 4.076 
321 1 1 0.115387 1.56605 4.74241 
208 1 1 1.59539 0.816781 4.23283 
306 1 1 2.37926 0.917995 4.93222 
212 1 1 3.29182 0.930624 4.28129 
309 1 1 3.22281 -0.0300154 4.80768 
207 1 1 2.22308 -0.0359118 4.13578 
210 1 1 3.96858 0.862463 3.22942 
213 1 1 4.78294 0.0655286 3.08588 
211 1 1 4.09696 0.132103 3.91805 
313 1 1 4.87289 0.0642672 4.7875 
310 1 1 4.08939 0.840848 4.81256 
333 1 1 4.75611 1.62316 4.81374 
214 1 1 5.79751 0.727965 3.33427 
216 1 1 4.89054 0.805859 4.01243 
220 1 1 6.48861 0.900345 4.12397 
337 1 1 6.34227 1.65762 4.89066 
314 1 1 5.6119 0.95826 4.81084 
317 1 1 6.41042 0.142923 4.97847 
218 1 1 7.44952 0.863024 3.30749 
204 1 1 0.162552 0.662288 4.00662 
219 1 1 7.39082 7.91934 4.20999 
318 1 1 7.26312 0.706792 4.88665 
217 1 1 6.54866 8.00259 3.34814 
222 1 1 0.808938 2.45038 3.0372 
245 1 1 1.50665 3.2743 3.09976 
325 1 1 1.51994 1.84201 4.8344 
228 1 1 1.5039 2.49751 3.96815 
227 1 1 2.34648 1.6262 4.06807 
247 1 1 2.39672 3.20902 4.2175 
229 1 1 3.20585 1.56519 3.31135 
249 1 1 3.10352 3.10588 3.50042 
230 1 1 3.83121 2.41263 3.34324 
231 1 1 4.0396 1.58584 4.06297 
232 1 1 3.21637 2.21422 4.09923 
251 1 1 3.87767 3.13435 4.22303 
236 1 1 4.70296 2.36489 4.03715 
253 1 1 4.80906 3.1773 3.31792 
235 1 1 5.64335 1.61111 4.02438 
255 1 1 5.60565 3.22053 4.0609 
240 1 1 6.4218 2.38646 4.08788 
237 1 1 6.48158 1.67338 3.36331 
239 1 1 7.35309 1.59014 4.12272 
224 1 1 0.0690826 2.28567 3.81051 
257 1 1 6.50246 3.15103 3.23477 
259 1 1 7.35143 3.05375 3.96614 
243 1 1 0.756296 3.20662 3.7398 
248 1 1 1.57749 3.83227 4.04177 
244 1 1 0.758435 4.12719 3.11046 
358 1 1 0.0756408 3.85874 4.03937 
345 1 1 1.69613 3.1116 5.02101 
246 1 1 2.49954 3.97816 3.42671 
346 1 1 2.36856 4.09361 4.95961 
269 1 1 3.15427 4.74671 3.18998 
252 1 1 3.14057 3.94112 4.23301 
350 1 1 4.0758 4.10163 4.77386 
273 1 1 4.77981 4.70174 3.12521 
256 1 1 4.74308 4.03358 4.03412 
271 1 1 4.03346 4.83069 4.03667 
254 1 1 5.65779 3.89491 3.17523 
260 1 1 6.57008 4.04998 4.08208 
275 1 1 5.59829 4.64863 3.91026 
373 1 1 4.70083 5.05388 4.7407 
241 1 1 0.0185469 3.26876 3.14706 
258 1 1 7.32481 4.00054 3.23635 
263 1 1 0.810149 4.64448 4.06522 
264 1 1 -0.0271603 5.56036 3.95543 
361 1 1 0.044534 4.81068 4.79063 
362 1 1 0.691346 5.66159 4.84214 
266 1 1 2.48633 5.78272 3.24663 
267 1 1 2.38667 4.94632 4.09317 
268 1 1 1.4547 5.56592 4.07573 
272 1 1 3.16018 5.5325 4.00839 
285 1 1 1.58949 6.35744 3.30953 
270 1 1 3.90181 5.63446 3.22977 
369 1 1 3.17236 4.82092 4.90178 
370 1 1 4.01212 5.83791 4.91658 
293 1 1 4.90873 6.60195 3.04556 
277 1 1 6.58353 4.7327 3.10948 
276 1 1 4.78148 5.60081 3.78706 
374 1 1 5.47132 5.71899 4.90163 
295 1 1 5.64564 6.44498 4.05445 
278 1 1 7.29041 5.61651 3.22012 
279 1 1 7.15542 4.82737 4.07474 
280 1 1 6.32683 5.61739 4.08746 
281 1 1 0.0990126 6.4371 3.22363 
299 1 1 7.21358 6.40278 4.01115 
205 1 1 1.74639 -0.00977616 3.11752 
203 1 1 0.827987 7.98488 4.12075 
305 1 1 1.46342 7.93423 4.94931 
283 1 1 0.706363 6.37233 3.97489 
288 1 1 1.60046 7.23126 3.89699 
382 1 1 0.769177 7.16155 4.88799 
385 1 1 1.56386 6.40856 4.64962 
287 1 1 2.54929 6.46645 4.00116 
386 1 1 2.29387 7.27855 4.80636 
291 1 1 4.23144 6.53244 4.03543 
289 1 1 3.23365 6.5037 3.07695 
292 1 1 3.41701 7.23383 3.92422 
290 1 1 3.96591 7.28422 2.96216 
390 1 1 3.98205 7.29251 4.78373 
296 1 1 4.96495 7.43968 4.03041 
215 1 1 5.76744 -0.00537846 4.09104 
294 1 1 5.69082 7.38006 3.07496 
300 1 1 6.45213 7.38716 4.26771 
394 1 1 5.56806 7.17275 4.97109 
397 1 1 6.41573 6.38262 4.97463 
284 1 1 0.0901644 7.2986 4.06611 
381 1 1 7.95513 6.34249 4.82864 
398 1 1 7.37973 7.13128 4.83758 
303 1 1 0.720046 7.92817 5.72912 
402 1 1 0.931309 0.878775 6.51947 
308 1 1 1.58498 0.670736 5.56079 
323 1 1 0.698114 1.59326 5.67366 
329 1 1 3.23145 1.70212 4.97069 
307 1 1 2.28463 7.98172 5.63138 
406 1 1 2.36427 0.729134 6.47775 
312 1 1 3.16727 0.779491 5.59039 
311 1 1 4.07039 0.124643 5.48659 
316 1 1 4.894 0.812895 5.59293 
409 1 1 3.29074 0.0169135 6.56087 
417 1 1 6.26339 0.123513 6.48238 
414 1 1 5.63147 0.847169 6.4864 
335 1 1 5.70054 1.63454 5.67782 
304 1 1 0.0653708 0.783993 5.70044 
421 1 1 0.065324 1.72405 6.50569 
320 1 1 6.38971 0.871839 5.60156 
339 1 1 7.23337 1.68036 5.72514 
418 1 1 7.13508 0.741545 6.39304 
322 1 1 0.757859 2.59157 4.64086 
328 1 1 1.55619 2.36567 5.69989 
422 1 1 0.798402 2.44506 6.39516 
425 1 1 1.55884 1.64605 6.47495 
326 1 1 2.459 2.4257 4.91556 
327 1 1 2.28866 1.56721 5.82758 
332 1 1 3.1456 2.32178 5.81688 
330 1 1 4.00929 2.40853 4.92164 
331 1 1 4.06157 1.66846 5.62122 
430 1 1 4.02959 2.29537 6.49654 
349 1 1 3.25733 3.13649 4.9817 
351 1 1 4.16009 3.05625 5.77152 
353 1 1 4.84591 3.26948 4.85473 
357 1 1 6.61493 3.25764 4.97983 
336 1 1 4.9309 2.34669 5.74669 
334 1 1 5.50709 2.32803 4.64568 
434 1 1 5.63734 2.24889 6.46583 
324 1 1 0.124077 2.39842 5.48847 
338 1 1 7.16622 2.40085 4.98286 
340 1 1 6.34619 2.38725 5.64108 
438 1 1 7.31047 2.31453 6.52947 
342 1 1 0.916625 3.80991 4.8614 
343 1 1 0.807177 3.16513 5.66909 
348 1 1 1.50686 4.10599 5.7911 
344 1 1 0.0539504 4.04127 5.58696 
347 1 1 2.50372 3.20072 5.72468 
449 1 1 3.2345 3.25926 6.47181 
352 1 1 3.28958 4.02516 5.58069 
356 1 1 4.94607 4.00058 5.67526 
355 1 1 5.68606 3.09251 5.82136 
354 1 1 5.50405 4.12181 4.69572 
454 1 1 5.60398 4.08963 6.45958 
477 1 1 6.27441 4.86899 6.38244 
457 1 1 6.40256 3.48317 6.34676 
341 1 1 8.02523 3.26553 4.89138 
359 1 1 7.34724 3.14939 5.84937 
360 1 1 6.38116 4.19141 5.62057 
458 1 1 7.16027 4.1051 6.26494 
379 1 1 7.19014 4.11398 4.9308 
465 1 1 1.60522 4.82919 6.50525 
365 1 1 1.52945 4.80371 4.8001 
363 1 1 0.75306 4.98517 5.60634 
368 1 1 1.90091 5.77772 5.72556 
462 1 1 0.842222 5.52676 6.52677 
364 1 1 7.97701 5.8386 5.91334 
461 1 1 7.97986 4.82807 6.53522 
366 1 1 2.42456 5.64543 4.8407 
389 1 1 3.18987 6.49641 4.92541 
367 1 1 2.34396 4.86883 5.59256 
387 1 1 2.52654 6.5949 5.66703 
466 1 1 2.52292 5.72239 6.65868 
371 1 1 4.1982 4.7043 5.581 
372 1 1 3.14672 5.67233 5.62096 
470 1 1 3.8413 5.77179 6.50921 
376 1 1 4.69872 5.57201 5.66068 
473 1 1 4.71836 4.8155 6.50971 
375 1 1 5.48312 4.87091 5.57095 
395 1 1 5.43976 6.52638 5.72267 
377 1 1 6.55827 4.98462 4.92924 
380 1 1 6.22402 5.69121 5.67526 
378 1 1 7.2179 5.74298 4.83807 
478 1 1 7.41051 4.9397 5.60194 
499 1 1 6.9511 5.66864 6.40172 
383 1 1 0.821008 6.27866 5.67962 
388 1 1 1.5638 7.04315 5.58142 
392 1 1 3.27953 7.39294 5.65612 
486 1 1 2.49308 7.18553 6.44423 
393 1 1 4.85365 6.56371 4.90227 
391 1 1 4.0459 6.43281 5.68117 
490 1 1 4.02025 7.36957 6.32332 
396 1 1 4.6266 7.30228 5.55957 
315 1 1 5.41997 7.91937 5.65079 
400 1 1 6.34402 7.41379 5.63669 
493 1 1 4.75862 6.53219 6.5803 
301 1 1 8.03334 7.97221 5.06283 
319 1 1 7.1968 0.0953825 5.66472 
401 1 1 8.03804 7.9603 6.42087 
384 1 1 0.0901276 7.03603 5.76102 
399 1 1 7.16566 6.61663 5.68645 
408 1 1 1.729 0.744324 7.22402 
407 1 1 2.53895 -0.00707871 7.40454 
412 1 1 3.24376 1.01283 7.27891 
427 1 1 2.34302 1.68943 7.23441 
10 1 1 4.17302 0.861296 8.07187 
33 1 1 4.86714 1.67925 8.02829 
410 1 1 3.96283 0.792304 6.49387 
14 1 1 5.65156 0.810952 0.0561779 
416 1 1 4.85594 0.831506 7.41922 
415 1 1 5.67528 0.0777807 7.38476 
420 1 1 6.49898 0.757952 7.45703 
433 1 1 4.89081 1.45386 6.54736 
437 1 1 6.53195 1.62527 6.45602 
404 1 1 8.0331 0.832974 7.18872 
18 1 1 7.31015 0.65787 0.124387 
419 1 1 7.25659 0.0539549 7.31377 
423 1 1 0.716993 1.69964 7.19739 
424 1 1 7.99803 2.56703 7.20719 
429 1 1 3.11282 1.54194 6.42754 
445 1 1 1.74446 3.42621 6.38427 
428 1 1 1.61443 2.52022 7.25359 
426 1 1 2.36674 2.48924 6.57947 
432 1 1 3.34784 2.44984 7.24619 
49 1 1 3.35937 3.24956 -0.0268223 
447 1 1 2.45044 3.24937 7.44937 
431 1 1 4.07022 1.66215 7.32546 
436 1 1 4.95234 2.5029 7.25894 
451 1 1 4.0996 3.20008 7.2728 
453 1 1 4.8922 3.28548 6.59963 
53 1 1 4.97301 3.26413 0.00909994 
435 1 1 5.82946 1.59552 7.24509 
440 1 1 6.51128 2.37718 7.18581 
455 1 1 5.82647 3.24938 7.2153 
38 1 1 7.40746 2.40023 0.0167817 
439 1 1 7.37792 1.70334 7.39443 
442 1 1 0.686757 4.08978 6.45591 
443 1 1 0.904319 3.25485 7.09887 
441 1 1 -0.00749473 3.2931 6.56178 
448 1 1 1.65835 3.95014 7.35789 
446 1 1 2.60894 4.05969 6.54446 
46 1 1 2.4309 4.1284 8.06149 
450 1 1 4.05481 3.9563 6.33307 
452 1 1 3.37365 4.15611 7.27532 
469 1 1 3.28278 4.81716 6.43141 
471 1 1 4.1788 4.88584 7.41247 
73 1 1 5.05283 4.96035 0.0750758 
54 1 1 5.74421 3.9582 0.0358983 
456 1 1 4.9251 4.05159 7.28554 
475 1 1 5.7803 4.7676 7.36899 
77 1 1 6.45984 4.81325 0.151947 
58 1 1 7.20524 3.99354 0.200897 
460 1 1 6.5655 4.13075 7.16436 
459 1 1 7.1745 3.34472 7.09682 
444 1 1 7.91753 4.17189 7.31857 
463 1 1 0.637888 4.83101 7.22833 
464 1 1 7.97642 5.61024 7.18429 
468 1 1 1.5859 5.77795 7.411 
467 1 1 2.27457 4.82526 7.28512 
487 1 1 2.82591 6.40108 7.34251 
70 1 1 4.12387 5.51738 0.0629869 
489 1 1 3.23777 6.53718 6.38341 
472 1 1 3.2207 5.50769 7.46222 
491 1 1 4.05299 6.46022 7.33654 
476 1 1 4.74633 5.76522 7.39419 
474 1 1 5.49224 5.65497 6.38197 
480 1 1 6.1425 5.7119 7.15052 
479 1 1 7.00017 4.99571 7.26622 
78 1 1 6.99947 6.30834 7.25451 
482 1 1 0.743784 7.0953 6.43492 
403 1 1 0.923051 0.0269903 7.26524 
483 1 1 0.847291 6.55457 7.4358 
405 1 1 1.50317 0.041249 6.33572 
9 1 1 3.33934 0.0264689 8.01687 
485 1 1 1.72305 6.39375 6.55153 
488 1 1 1.68479 7.4225 7.3339 
90 1 1 4.04646 7.26998 0.0200453 
13 1 1 4.78413 8.04579 0.124853 
492 1 1 3.35671 7.39134 7.34339 
411 1 1 4.13702 7.98345 7.19963 
496 1 1 4.8653 7.19351 7.46055 
497 1 1 6.2382 6.64392 6.4249 
413 1 1 4.84438 0.109291 6.54835 
494 1 1 5.41883 7.33724 6.67329 
94 1 1 5.54147 7.39004 0.110963 
495 1 1 5.60991 6.55191 7.51927 
500 1 1 6.35391 7.29298 7.36423 
481 1 1 7.79814 6.5799 6.59005 
484 1 1 0.145966 7.24896 7.28056 
498 1 1 7.25897 7.4352 6.32064 
98 1 1 7.25861 7.21322 7.92575 
