ITEM: TIMESTEP
40000
ITEM: NUMBER OF ATOMS
500
ITEM: BOX BOUNDS pp pp pp
0 8.07388
0 8.07388
0 8.07388
ITEM: ATOMS id type mass x y z 
23 1 1 0.674209 1.60331 1.03907 
8 1 1 1.46939 0.853251 0.763193 
4 1 1 7.85524 0.690024 0.86353 
105 1 1 1.56505 0.0234979 1.6886 
121 1 1 7.82756 1.60741 1.66356 
7 1 1 2.26076 0.00171727 0.774993 
12 1 1 3.42444 0.741714 0.914806 
9 1 1 3.40184 7.99981 0.141366 
29 1 1 3.21841 1.80073 0.157397 
129 1 1 3.15144 1.66157 1.71037 
10 1 1 4.02098 0.880678 0.12992 
16 1 1 4.87542 0.861187 0.759009 
11 1 1 4.24192 7.95231 0.78117 
31 1 1 3.93859 1.73098 0.964873 
35 1 1 5.48209 1.75619 0.855161 
14 1 1 5.58875 0.80302 0.00595557 
20 1 1 6.20076 0.932071 0.818484 
15 1 1 5.53399 8.07114 0.795376 
39 1 1 7.28035 1.62949 0.837349 
19 1 1 7.13181 7.94332 0.862619 
18 1 1 7.17921 0.752417 8.0609 
24 1 1 8.03497 2.36999 0.760863 
22 1 1 0.812542 2.34196 0.141582 
28 1 1 1.51892 2.42653 0.993954 
141 1 1 7.97832 3.25662 1.74491 
21 1 1 7.95008 1.52334 0.0714291 
27 1 1 2.26025 1.74429 1.04497 
126 1 1 2.40403 2.4918 1.79393 
32 1 1 3.20016 2.44518 0.956849 
49 1 1 3.24306 2.99809 0.106551 
30 1 1 4.17125 2.48168 0.0916178 
51 1 1 4.165 3.44585 0.688484 
53 1 1 4.89548 3.25241 7.99983 
36 1 1 4.95748 2.69217 0.784379 
33 1 1 4.95154 1.69908 0.0198625 
37 1 1 6.49177 1.50776 0.0725654 
55 1 1 5.8059 3.21292 0.689994 
40 1 1 6.41931 2.36803 0.78334 
38 1 1 7.22792 2.34727 0.0779194 
43 1 1 0.69347 3.1145 0.937911 
145 1 1 1.62545 3.27256 1.55234 
48 1 1 1.50275 4.0568 0.760779 
44 1 1 8.00662 3.89894 0.73551 
45 1 1 1.56 3.14743 0.326213 
47 1 1 2.42723 3.33745 0.93058 
67 1 1 2.52369 4.75191 0.79592 
69 1 1 3.1864 4.93079 0.0420668 
52 1 1 3.34764 3.9308 0.844337 
50 1 1 4.06258 4.19549 8.04757 
56 1 1 4.99822 4.06034 0.696132 
71 1 1 3.9271 4.90555 0.956865 
154 1 1 5.45626 4.25091 1.81698 
75 1 1 5.95016 5.00156 0.806341 
57 1 1 6.51491 3.13473 7.99063 
59 1 1 7.21605 3.17498 0.736864 
60 1 1 6.57135 4.11597 0.785164 
161 1 1 7.36463 4.65892 0.57882 
58 1 1 7.2403 3.95712 7.94854 
158 1 1 7.16876 4.13547 1.70495 
63 1 1 0.774508 4.89278 0.687923 
64 1 1 8.03489 5.57462 0.847009 
162 1 1 0.809975 5.57648 1.47886 
62 1 1 0.858311 5.53112 7.99734 
68 1 1 1.7569 5.65398 0.901031 
165 1 1 1.43357 4.79811 1.70733 
66 1 1 2.39908 5.8292 8.08651 
87 1 1 2.56499 6.62133 0.804336 
72 1 1 3.11459 5.52278 0.891398 
76 1 1 5.07575 5.71078 0.605259 
91 1 1 4.16266 6.51713 0.803685 
80 1 1 6.54777 5.91786 0.691847 
74 1 1 5.69243 5.61048 7.78983 
93 1 1 4.74158 6.31116 7.92693 
163 1 1 8.05254 4.90744 1.55807 
99 1 1 7.33541 6.52208 0.657306 
177 1 1 6.41035 4.89332 1.74505 
3 1 1 0.67914 0.142824 0.833136 
83 1 1 0.650661 6.47974 0.766226 
182 1 1 0.820022 7.43244 1.54556 
88 1 1 1.39246 7.28484 0.762347 
92 1 1 3.34435 7.31976 0.897434 
185 1 1 1.94764 6.579 1.60978 
85 1 1 1.55692 6.57018 0.0783374 
90 1 1 4.06267 7.15856 0.0606393 
95 1 1 5.65745 6.46323 0.788757 
96 1 1 4.97972 7.21776 0.686633 
100 1 1 6.49775 7.27299 0.549681 
84 1 1 8.03183 7.33527 0.697997 
98 1 1 7.36903 7.3269 7.91705 
102 1 1 0.680321 0.7861 1.71843 
101 1 1 8.04003 8.04251 1.65581 
104 1 1 8.08709 0.760236 2.4757 
123 1 1 0.696371 1.63767 2.50734 
125 1 1 1.49771 1.53304 1.7745 
225 1 1 1.77046 1.53798 3.27811 
103 1 1 0.701991 7.94254 2.4908 
106 1 1 2.57467 0.61989 1.54949 
108 1 1 1.56785 0.764907 2.45582 
127 1 1 2.27722 1.62728 2.41498 
112 1 1 3.2308 0.806471 2.38889 
110 1 1 4.20872 0.895738 1.58618 
116 1 1 4.80972 0.775478 2.45586 
131 1 1 3.99586 1.68104 2.42492 
109 1 1 3.58181 0.015361 1.69195 
114 1 1 5.68058 0.837345 1.71587 
214 1 1 5.64273 0.910383 3.32654 
120 1 1 6.3914 0.795873 2.43896 
118 1 1 7.03699 0.840859 1.53455 
139 1 1 7.16368 1.50031 2.38344 
117 1 1 6.33931 7.95268 1.78811 
119 1 1 7.16643 7.9769 2.27229 
217 1 1 6.39659 0.0944763 3.19775 
122 1 1 0.808736 2.42326 1.71229 
222 1 1 0.807093 2.49709 3.14535 
128 1 1 1.57815 2.5535 2.43989 
132 1 1 3.06766 2.2196 2.54683 
149 1 1 3.07619 3.20568 1.72671 
147 1 1 2.23012 3.39824 2.46403 
133 1 1 4.76315 1.83533 1.72764 
130 1 1 4.14478 2.62379 1.4687 
136 1 1 4.87165 2.58887 2.43443 
153 1 1 5.07349 3.34063 1.52021 
135 1 1 5.638 1.63225 2.46048 
137 1 1 6.38758 1.70542 1.59299 
134 1 1 5.6357 2.49926 1.67283 
140 1 1 6.48846 2.40714 2.46954 
157 1 1 6.3995 3.24167 1.66668 
138 1 1 7.25355 2.39287 1.67968 
124 1 1 8.04525 2.51621 2.46383 
241 1 1 0.0545575 3.21803 3.26902 
142 1 1 0.615577 4.09219 1.65495 
143 1 1 0.892526 3.3226 2.47524 
148 1 1 1.50666 4.28438 2.59794 
245 1 1 1.5113 3.35988 3.26563 
244 1 1 0.748278 4.15145 3.34206 
146 1 1 2.35232 4.08699 1.67502 
169 1 1 3.14928 4.7823 1.71723 
246 1 1 2.53251 4.01951 3.22848 
152 1 1 3.30711 4.03214 2.57652 
151 1 1 3.8451 3.22315 2.3518 
150 1 1 4.28485 3.95372 1.73362 
156 1 1 4.83666 4.06857 2.56647 
171 1 1 3.90907 4.78365 2.37456 
173 1 1 4.76578 4.95466 1.43931 
155 1 1 5.67691 3.33369 2.51067 
160 1 1 6.37764 4.10969 2.42831 
144 1 1 7.89672 4.21789 2.40784 
159 1 1 7.2005 3.31306 2.45651 
242 1 1 0.693636 4.90978 2.45262 
262 1 1 0.81347 5.90705 3.21736 
183 1 1 0.853282 6.45836 2.12503 
164 1 1 8.06586 6.12375 2.53757 
166 1 1 2.26044 5.36176 1.76541 
189 1 1 3.05234 6.53842 1.79661 
168 1 1 1.70843 5.54214 2.58889 
167 1 1 2.50798 4.78251 2.5015 
266 1 1 2.5079 5.58661 3.4401 
289 1 1 3.12177 6.49031 3.2833 
172 1 1 3.1567 5.60961 2.5806 
170 1 1 3.93539 5.66614 1.755 
270 1 1 4.14107 5.67862 3.14086 
273 1 1 4.83604 4.81 3.31247 
193 1 1 4.937 6.27783 1.57265 
174 1 1 5.64184 5.54511 1.765 
175 1 1 5.61062 4.88753 2.59589 
176 1 1 4.7551 5.55142 2.39128 
180 1 1 6.40181 5.74777 2.46929 
178 1 1 7.31 5.65895 1.52615 
179 1 1 7.20353 5.0542 2.37709 
277 1 1 6.39262 4.99516 3.20294 
181 1 1 7.99173 6.41837 1.49115 
188 1 1 1.72759 7.16899 2.42745 
184 1 1 7.90457 7.19528 2.39949 
282 1 1 0.782019 7.08351 3.12343 
186 1 1 2.52909 7.38265 1.60119 
107 1 1 2.37644 0.0801683 2.58014 
187 1 1 2.44224 6.35866 2.63737 
192 1 1 3.13029 7.50646 2.37829 
111 1 1 4.23065 0.0173864 2.41484 
191 1 1 4.0922 6.5128 2.6166 
190 1 1 3.99559 7.03067 1.62233 
195 1 1 5.32519 6.34096 2.45575 
113 1 1 4.90578 7.99691 1.62362 
115 1 1 5.58939 7.98925 2.51338 
197 1 1 6.42165 6.42734 1.60641 
196 1 1 4.81205 7.31483 2.49187 
194 1 1 5.71172 7.20892 1.52518 
198 1 1 7.27559 7.1957 1.46563 
200 1 1 6.34636 7.12076 2.44251 
199 1 1 7.16629 6.47106 2.28456 
281 1 1 7.87748 6.64997 3.46597 
202 1 1 0.807729 0.84656 3.21632 
208 1 1 1.64975 0.814094 4.07676 
325 1 1 1.51752 1.53483 4.8089 
204 1 1 7.9928 0.817613 3.86172 
203 1 1 0.933029 0.0432504 4.1368 
305 1 1 1.69696 0.0426686 4.85059 
229 1 1 3.35279 1.62453 3.37406 
206 1 1 2.59459 0.757285 3.28265 
227 1 1 2.51099 1.42152 4.09009 
306 1 1 2.38151 0.835404 4.89335 
212 1 1 3.35605 0.72215 4.02653 
309 1 1 3.17708 0.1205 4.85884 
233 1 1 4.75961 1.83357 3.1448 
213 1 1 4.88477 8.08883 3.20816 
210 1 1 4.042 0.877903 3.25239 
310 1 1 4.07507 0.857207 4.93968 
211 1 1 4.20238 0.117947 4.07127 
216 1 1 4.92805 0.848254 4.09016 
314 1 1 5.89396 0.892283 4.78981 
235 1 1 5.71862 1.60758 4.12768 
337 1 1 6.61229 1.63526 4.7292 
218 1 1 7.25429 0.714723 3.12818 
221 1 1 8.04751 1.71849 3.2139 
220 1 1 6.53686 0.779227 3.95361 
239 1 1 7.23985 1.63235 3.97473 
219 1 1 7.31376 0.0363194 4.12194 
223 1 1 0.786168 1.62879 4.04432 
228 1 1 1.55386 2.49476 4.01163 
322 1 1 0.91546 2.31882 4.80434 
341 1 1 0.141344 3.06077 4.98152 
226 1 1 2.54694 2.24025 3.40428 
232 1 1 3.19941 2.34937 4.21749 
326 1 1 2.2744 2.25727 4.87952 
345 1 1 1.5666 3.2228 4.85366 
230 1 1 4.01226 2.52693 3.17766 
231 1 1 4.08788 1.58161 4.15817 
249 1 1 3.21701 3.21358 3.29829 
251 1 1 4.06137 3.06107 4.15379 
330 1 1 4.10897 2.28083 4.95682 
333 1 1 4.89127 1.56195 4.93184 
236 1 1 4.86232 2.31679 3.97906 
234 1 1 5.80489 2.55834 3.28169 
334 1 1 5.72755 2.38664 4.83645 
353 1 1 4.87765 3.04798 4.82421 
224 1 1 0.128803 2.40109 4.07991 
240 1 1 6.53925 2.49937 4.01025 
238 1 1 7.20588 2.40292 3.25118 
237 1 1 6.40289 1.55649 3.20412 
338 1 1 7.35511 2.34118 4.82657 
321 1 1 8.01103 1.61936 4.90587 
243 1 1 0.797532 3.24529 4.01697 
358 1 1 8.01209 4.00221 4.0574 
248 1 1 1.65293 3.979 4.14667 
342 1 1 0.719393 3.94214 4.79036 
247 1 1 2.28251 3.1701 4.03252 
267 1 1 2.58085 4.74346 4.25629 
250 1 1 4.14082 3.84113 3.5072 
269 1 1 3.40586 4.83922 3.19418 
252 1 1 3.21191 3.93959 4.04719 
369 1 1 3.30078 4.81939 4.93294 
256 1 1 4.99694 3.9511 4.2806 
253 1 1 4.87461 3.23012 3.35378 
255 1 1 5.71238 3.20906 4.03555 
254 1 1 5.69122 4.03425 3.42088 
258 1 1 7.27957 4.09271 3.32641 
257 1 1 6.62589 3.30956 3.2325 
259 1 1 7.33923 3.18967 4.09672 
260 1 1 6.49347 3.9941 4.01113 
279 1 1 7.21923 4.88688 4.04177 
285 1 1 1.6903 6.4082 3.27509 
265 1 1 1.56794 4.79755 3.48679 
263 1 1 0.486739 4.93921 3.83726 
264 1 1 0.0858116 5.80462 4.07874 
283 1 1 0.922516 6.50348 4.12998 
268 1 1 1.79625 5.63007 4.26239 
272 1 1 3.15002 5.78433 4.2964 
271 1 1 4.0341 4.84103 4.12228 
291 1 1 3.95908 6.45638 3.99652 
274 1 1 5.41937 5.70239 3.31118 
293 1 1 4.7948 6.55723 3.27357 
276 1 1 4.69794 5.84265 4.0304 
275 1 1 5.59579 4.92274 3.99379 
261 1 1 8.00555 5.18963 3.03461 
297 1 1 6.19613 6.41622 3.2089 
278 1 1 7.17121 5.90105 3.20441 
280 1 1 6.3818 5.68661 4.01964 
378 1 1 7.42097 5.55975 4.84114 
201 1 1 7.91539 7.89982 3.2772 
205 1 1 1.54036 8.01765 3.13667 
284 1 1 0.160308 7.41491 4.16521 
382 1 1 0.946465 7.35746 4.891 
288 1 1 1.67349 7.3323 4.10553 
381 1 1 0.100731 6.58324 4.88335 
287 1 1 2.3705 6.49099 4.18831 
207 1 1 2.46579 -0.00180446 4.0876 
286 1 1 2.31943 7.37082 3.28264 
292 1 1 3.18359 7.10892 4.02005 
209 1 1 3.24211 8.00112 3.38286 
313 1 1 5.02367 0.0314615 4.82403 
290 1 1 4.10072 7.31398 3.18513 
393 1 1 4.77418 6.43913 4.90596 
317 1 1 6.49521 0.00142003 4.8679 
295 1 1 5.54672 6.445 4.08259 
296 1 1 4.95194 7.35284 3.92416 
294 1 1 5.64138 7.27007 3.24373 
215 1 1 5.6127 0.00907589 3.90898 
300 1 1 6.39434 7.13489 3.98963 
299 1 1 7.13245 6.3678 4.14977 
298 1 1 7.07111 7.20327 3.13847 
398 1 1 7.24119 7.25744 4.60977 
302 1 1 0.851196 0.690523 4.91167 
303 1 1 0.90013 7.98369 5.60938 
308 1 1 1.56312 0.74978 5.67285 
421 1 1 8.03844 1.59263 6.42743 
402 1 1 0.69647 0.882092 6.35456 
406 1 1 2.28898 0.776164 6.51623 
327 1 1 2.34086 1.46972 5.71616 
307 1 1 2.54228 0.109547 5.57479 
429 1 1 3.11386 1.57497 6.37406 
329 1 1 3.34115 1.49898 4.82313 
312 1 1 3.18342 0.914207 5.63661 
331 1 1 3.98186 1.48082 5.74538 
410 1 1 4.02653 0.804069 6.51198 
311 1 1 3.97737 0.0985357 5.61738 
409 1 1 3.23601 0.166171 6.32274 
316 1 1 4.94255 0.770916 5.6534 
413 1 1 4.85495 0.0578177 6.64476 
320 1 1 6.38282 0.721194 5.69751 
318 1 1 7.36833 0.744008 4.83285 
304 1 1 0.0579253 0.702453 5.60124 
319 1 1 7.26712 0.0949948 5.74545 
418 1 1 7.2356 0.808485 6.40426 
323 1 1 0.878317 1.60565 5.6139 
328 1 1 1.54021 2.4175 5.58535 
343 1 1 0.920427 3.2204 5.71759 
425 1 1 1.53956 1.52228 6.58505 
347 1 1 2.19769 3.3069 5.6843 
349 1 1 3.23262 3.14124 4.8906 
449 1 1 3.21916 3.15769 6.33711 
332 1 1 3.10555 2.4469 5.62667 
351 1 1 4.10736 3.14418 5.74484 
336 1 1 4.85557 2.3831 5.73372 
335 1 1 5.71835 1.50199 5.51821 
434 1 1 5.66763 2.34425 6.45965 
355 1 1 5.63946 3.07395 5.54693 
433 1 1 4.90119 1.60427 6.44032 
339 1 1 7.25365 1.40456 5.62077 
324 1 1 8.05571 2.40528 5.67042 
340 1 1 6.61512 2.41199 5.4869 
437 1 1 6.46992 1.63048 6.24572 
457 1 1 6.33068 3.19958 6.25767 
438 1 1 7.26755 2.20907 6.29006 
361 1 1 8.00934 4.81331 4.88249 
344 1 1 0.128024 4.00425 5.607 
363 1 1 0.887868 4.65399 5.64555 
365 1 1 1.28196 4.81567 4.57396 
461 1 1 0.117232 4.76105 6.47922 
445 1 1 1.69926 3.18401 6.54285 
346 1 1 2.45996 3.86423 4.80466 
348 1 1 1.53763 4.00781 5.56038 
367 1 1 2.21994 4.75437 5.25012 
352 1 1 3.13537 3.91888 5.70115 
446 1 1 2.3742 3.93362 6.53943 
350 1 1 4.11738 4.02264 4.92219 
473 1 1 4.97777 4.89194 6.51238 
373 1 1 4.91065 4.86032 4.98709 
371 1 1 4.02631 4.74969 5.90287 
469 1 1 2.9751 4.82199 6.321 
450 1 1 4.29178 4.04591 6.58473 
354 1 1 5.7425 4.05161 4.97554 
356 1 1 4.84889 3.81868 5.64169 
379 1 1 7.21445 4.14511 4.80676 
357 1 1 6.65362 3.31874 4.97391 
359 1 1 7.45268 3.23735 5.59341 
360 1 1 6.37369 4.19839 5.76192 
478 1 1 7.27117 4.81933 5.68951 
458 1 1 7.25082 4.08012 6.53436 
477 1 1 6.46197 4.95215 6.38415 
362 1 1 0.945012 5.73994 4.84775 
368 1 1 1.6238 5.56859 5.73458 
462 1 1 0.819206 5.42696 6.40193 
364 1 1 8.07922 5.61847 5.63901 
366 1 1 2.54757 5.65168 5.0781 
387 1 1 2.33382 6.57781 5.65205 
372 1 1 3.30345 5.56427 5.67651 
466 1 1 2.45498 5.74667 6.39396 
370 1 1 4.10309 5.52884 4.90385 
375 1 1 5.80473 5.11869 5.60538 
374 1 1 5.56856 5.77319 4.79715 
376 1 1 4.77635 5.73498 5.69275 
474 1 1 5.71079 5.67384 6.49733 
377 1 1 6.48465 4.8802 4.7968 
397 1 1 6.44522 6.42759 5.01176 
380 1 1 6.70875 5.72434 5.72082 
499 1 1 7.37741 5.74954 6.5015 
383 1 1 0.899147 6.50344 5.61281 
388 1 1 1.84072 7.41622 5.69667 
385 1 1 1.63027 6.53691 4.89065 
485 1 1 1.67898 6.56686 6.39394 
482 1 1 0.832115 7.29616 6.46273 
386 1 1 2.49034 7.388 4.81782 
486 1 1 2.5254 7.28172 6.52896 
390 1 1 3.95596 7.43912 4.8945 
389 1 1 3.1462 6.4721 4.99945 
391 1 1 4.0036 6.59782 5.63695 
392 1 1 3.18969 7.38013 5.74358 
396 1 1 4.75565 7.20284 5.49345 
395 1 1 5.61337 6.48492 5.75136 
394 1 1 5.62298 7.12674 4.97337 
315 1 1 5.68593 8.00481 5.68615 
497 1 1 6.48874 6.52234 6.37297 
301 1 1 7.99565 7.98349 4.96819 
399 1 1 7.28893 6.65923 5.52369 
400 1 1 6.45439 7.23385 5.56305 
384 1 1 0.10655 7.29942 5.64165 
498 1 1 7.35567 7.28082 6.44966 
401 1 1 8.08004 0.0302657 6.40497 
2 1 1 0.728968 0.710138 0.0181442 
403 1 1 0.786296 8.05154 7.33286 
5 1 1 1.553 7.98228 0.0605695 
405 1 1 1.64425 8.00947 6.48694 
404 1 1 0.10041 0.823862 7.23455 
6 1 1 2.44324 0.894683 0.151785 
408 1 1 1.86666 0.570706 7.41038 
412 1 1 3.18064 0.82901 7.31576 
431 1 1 3.83531 1.56735 7.23178 
411 1 1 3.9199 0.0394932 7.2822 
416 1 1 4.88368 1.02341 7.23762 
13 1 1 4.74849 0.0409861 7.99176 
414 1 1 5.5675 0.801405 6.48192 
435 1 1 5.83819 1.60541 7.25853 
415 1 1 5.67609 0.129468 7.19759 
1 1 1 8.0491 -0.00637599 0.0215668 
417 1 1 6.49749 8.008 6.49214 
420 1 1 6.4489 0.812695 7.11083 
419 1 1 7.38555 8.07054 7.21383 
41 1 1 8.08757 3.11037 8.04136 
423 1 1 0.739552 1.58969 7.36518 
25 1 1 1.45782 1.54568 0.0698666 
422 1 1 0.755604 2.45542 6.35969 
428 1 1 1.51979 2.37038 7.26669 
26 1 1 2.20674 2.28797 0.082761 
426 1 1 2.39305 2.47642 6.45566 
427 1 1 2.18565 1.56193 7.35206 
447 1 1 2.28736 3.09892 7.41132 
432 1 1 3.01424 2.39665 7.25656 
430 1 1 3.99927 2.2774 6.4353 
451 1 1 4.02729 3.17566 7.30571 
453 1 1 4.82926 3.1869 6.5478 
34 1 1 5.72953 2.32853 0.0317828 
436 1 1 4.82082 2.42507 7.3277 
455 1 1 5.58144 3.20895 7.17297 
439 1 1 7.18274 1.57127 7.338 
441 1 1 0.0451429 3.1452 6.55557 
424 1 1 7.97099 2.27016 7.34709 
440 1 1 6.46936 2.4842 7.22429 
42 1 1 0.795453 3.97161 0.0213828 
443 1 1 0.740231 3.02963 7.36397 
442 1 1 0.866285 3.90728 6.6973 
46 1 1 2.75367 3.85264 0.00606873 
448 1 1 1.75053 4.08266 7.53298 
65 1 1 1.79031 4.998 0.0611099 
452 1 1 3.26189 3.83181 7.12637 
456 1 1 4.92671 4.1232 7.43886 
54 1 1 5.90259 4.00736 7.984 
77 1 1 6.54397 4.89877 7.97622 
73 1 1 4.95666 4.85014 8.07874 
454 1 1 5.62775 3.96335 6.4005 
475 1 1 5.8388 4.76052 7.23659 
444 1 1 8.0753 4.01046 7.35421 
460 1 1 6.44774 3.94325 7.04147 
459 1 1 7.20645 3.14218 7.10746 
479 1 1 7.32361 4.94916 7.12326 
61 1 1 0.118303 4.82009 8.01966 
463 1 1 0.829648 4.84755 7.25882 
465 1 1 1.60335 4.60625 6.57586 
467 1 1 2.46924 4.83142 7.33785 
468 1 1 1.65296 5.56099 7.12079 
470 1 1 3.94195 5.72471 6.39189 
471 1 1 3.72414 4.78265 6.98268 
472 1 1 3.19789 5.6208 7.26453 
70 1 1 4.0376 5.47078 0.202091 
476 1 1 4.66573 5.49259 7.23961 
493 1 1 4.87816 6.43 6.56969 
480 1 1 6.51795 5.62172 7.24798 
495 1 1 5.67456 6.56492 7.36885 
79 1 1 7.40253 5.62893 7.99248 
97 1 1 6.6819 6.58009 7.96005 
464 1 1 0.190953 5.72976 7.18396 
78 1 1 7.27946 6.50033 7.08353 
81 1 1 8.05679 6.47024 0.0479125 
82 1 1 0.802257 7.24568 8.04889 
483 1 1 1.07827 6.43652 7.16343 
407 1 1 2.63696 0.0398407 7.50456 
487 1 1 2.52187 6.54709 7.27432 
488 1 1 1.72754 7.3261 7.25387 
86 1 1 2.49332 7.25449 8.05381 
89 1 1 3.2788 6.29857 0.094419 
489 1 1 3.36243 6.51506 6.48255 
491 1 1 4.01003 6.40069 7.22773 
492 1 1 3.26561 7.34004 7.36198 
490 1 1 4.02067 7.33422 6.43087 
17 1 1 6.4259 0.116059 7.979 
94 1 1 5.59919 7.43945 8.0144 
496 1 1 4.62589 7.20203 7.36423 
494 1 1 5.51611 7.21419 6.43505 
481 1 1 0.0698994 6.48365 6.43637 
500 1 1 6.51487 7.28488 7.12142 
484 1 1 0.0477067 7.27397 7.24975 
