ITEM: TIMESTEP
48000
ITEM: NUMBER OF ATOMS
500
ITEM: BOX BOUNDS pp pp pp
0 8.07388
0 8.07388
0 8.07388
ITEM: ATOMS id type mass x y z 
8 1 1 1.54903 0.825695 0.809922 
5 1 1 1.55268 0.0214423 8.01781 
102 1 1 0.840364 0.552383 1.49548 
12 1 1 3.2181 0.833171 0.857864 
7 1 1 2.31387 0.0106157 0.752808 
106 1 1 2.25487 0.829325 1.55456 
109 1 1 3.25753 7.97299 1.5904 
10 1 1 4.22083 0.756013 8.0267 
11 1 1 4.19859 0.0739601 0.650092 
110 1 1 4.06564 0.585962 1.49628 
16 1 1 5.11431 0.596683 0.799681 
113 1 1 4.99711 8.05743 1.66621 
14 1 1 5.68398 0.727057 7.8835 
20 1 1 6.36026 0.9244 0.670782 
4 1 1 8.05096 0.5611 0.779906 
39 1 1 7.22169 1.56094 0.692694 
18 1 1 7.18296 0.755144 7.95202 
23 1 1 0.848754 1.5342 0.771418 
28 1 1 1.52022 2.31424 0.791391 
21 1 1 0.0187509 1.45706 0.131137 
27 1 1 2.31251 1.47554 0.643767 
26 1 1 2.37789 2.46544 0.159472 
47 1 1 2.50973 3.22157 0.979136 
149 1 1 3.31265 3.384 1.63484 
31 1 1 4.13436 1.60012 0.85061 
32 1 1 3.34478 2.51229 1.04186 
30 1 1 3.78339 2.4161 0.0344542 
129 1 1 2.97614 1.61152 1.52888 
49 1 1 3.29403 3.35978 0.114262 
33 1 1 4.72347 1.79103 7.85991 
35 1 1 5.56671 1.53266 0.640405 
36 1 1 4.793 2.50456 0.735671 
53 1 1 4.80001 3.34052 0.0281883 
55 1 1 5.66012 3.23961 0.744357 
24 1 1 8.05625 2.30448 0.81452 
40 1 1 6.31117 2.30788 0.710743 
37 1 1 6.51682 1.58776 7.99597 
38 1 1 7.29651 2.48657 0.209924 
157 1 1 6.44528 3.14126 1.33299 
145 1 1 1.64729 3.23886 1.82061 
43 1 1 0.750925 3.27962 0.937111 
48 1 1 1.5417 3.99587 0.836752 
61 1 1 8.02288 4.76281 7.94558 
67 1 1 2.30698 4.86231 0.933385 
146 1 1 2.25107 4.03728 1.61938 
165 1 1 1.46971 4.86032 1.63517 
46 1 1 2.41476 3.96569 0.214812 
51 1 1 4.06471 3.26242 0.780886 
52 1 1 3.17006 4.18114 0.895233 
50 1 1 3.96106 4.12929 0.0647769 
71 1 1 4.13007 4.84745 0.73538 
150 1 1 4.04521 4.07223 1.51107 
56 1 1 4.87978 4.07257 0.759747 
153 1 1 4.98738 3.25426 1.59262 
54 1 1 5.64575 4.09568 0.0962983 
44 1 1 8.02279 4.04121 1.01244 
59 1 1 7.34292 3.32052 0.866366 
60 1 1 6.40156 4.07889 0.912265 
58 1 1 7.36746 4.04011 0.0844644 
41 1 1 8.06035 3.26397 7.95278 
63 1 1 0.779131 5.00171 0.803022 
68 1 1 1.61103 5.98838 0.756727 
163 1 1 0.140896 4.85521 1.6334 
83 1 1 0.628714 6.4968 0.814084 
72 1 1 3.13376 5.62035 0.911896 
166 1 1 2.40665 5.53393 1.68542 
91 1 1 3.97286 6.28605 0.848781 
76 1 1 4.90116 5.62877 0.944084 
75 1 1 5.78621 4.96107 0.808662 
174 1 1 5.76638 5.84288 1.70185 
95 1 1 5.49043 6.39376 0.865177 
97 1 1 6.61012 6.3232 -0.000641627 
64 1 1 8.00635 5.62712 0.969446 
161 1 1 7.31003 4.72055 0.837654 
80 1 1 6.66965 5.70366 0.945992 
77 1 1 6.57946 4.63281 8.06091 
79 1 1 7.36542 5.50839 8.04167 
3 1 1 0.887292 8.00774 0.676034 
185 1 1 1.78059 6.42987 1.71108 
88 1 1 1.59275 7.21135 0.745399 
182 1 1 1.00577 7.24082 1.65878 
105 1 1 1.6943 8.025 1.62675 
82 1 1 0.971856 7.02742 7.91159 
87 1 1 2.41321 6.66858 0.805258 
92 1 1 3.30579 7.30666 0.735845 
86 1 1 2.39652 7.38644 -0.00347698 
186 1 1 2.50857 7.23775 1.64684 
193 1 1 4.77122 6.53256 1.57891 
189 1 1 3.20354 6.40554 1.60713 
90 1 1 4.1785 7.10206 0.0525266 
190 1 1 4.12718 7.30995 1.58688 
15 1 1 5.93028 7.98102 0.775053 
96 1 1 4.92204 7.33707 0.785127 
13 1 1 5.07625 7.97878 7.96238 
94 1 1 5.63331 7.022 0.0392456 
100 1 1 6.47698 7.12817 0.919777 
194 1 1 5.77893 7.11807 1.6586 
93 1 1 4.80222 6.32002 0.0712345 
19 1 1 7.10922 0.00161255 0.740405 
84 1 1 7.97418 7.41678 0.917361 
99 1 1 7.36057 6.46369 0.829842 
198 1 1 7.26255 7.25011 1.77195 
123 1 1 0.465733 1.79171 2.36985 
103 1 1 0.905901 8.05604 2.41608 
108 1 1 1.58565 0.910707 2.49302 
104 1 1 0.143008 0.868255 2.27487 
221 1 1 8.05894 1.55383 3.20163 
107 1 1 2.44442 0.130857 2.47227 
206 1 1 2.44758 0.938336 3.27004 
209 1 1 3.21998 8.02683 3.25797 
112 1 1 3.14553 0.853472 2.24887 
111 1 1 4.08303 0.105761 2.48811 
233 1 1 4.86965 1.67876 3.0502 
116 1 1 4.98423 0.794833 2.45586 
213 1 1 4.91026 0.0739883 3.19948 
210 1 1 4.01502 0.802304 3.23473 
114 1 1 5.7789 0.84508 1.75838 
135 1 1 5.79232 1.67354 2.31701 
133 1 1 4.98173 1.61204 1.74613 
118 1 1 7.34634 0.737192 1.51754 
101 1 1 8.0244 8.0552 1.75325 
120 1 1 6.55573 0.827355 2.32781 
137 1 1 6.55155 1.52169 1.52457 
139 1 1 7.33769 1.46838 2.32062 
122 1 1 0.942255 2.44066 1.69424 
121 1 1 0.0439503 1.53867 1.40415 
125 1 1 1.60938 1.58366 1.80128 
128 1 1 1.57844 2.45723 2.50203 
245 1 1 1.61105 3.31477 3.28131 
126 1 1 2.24436 2.37616 1.59123 
127 1 1 2.32552 1.6546 2.49573 
226 1 1 2.50912 2.42829 3.06681 
130 1 1 4.14992 2.65248 1.6586 
132 1 1 3.24913 2.55846 2.16532 
131 1 1 4.06582 1.73036 2.37677 
151 1 1 4.1114 3.24561 2.48872 
230 1 1 4.16704 2.51213 3.28382 
229 1 1 3.27632 1.61407 3.23311 
134 1 1 5.65362 2.38249 1.51778 
136 1 1 4.88264 2.51437 2.48686 
234 1 1 5.75832 2.31781 3.21259 
155 1 1 5.64154 3.22173 2.34617 
253 1 1 4.92509 3.38918 3.27905 
124 1 1 7.81344 2.51831 2.5259 
140 1 1 6.40918 2.5572 2.25922 
138 1 1 7.26829 2.27443 1.69369 
159 1 1 7.11835 3.32671 2.23286 
142 1 1 0.84607 4.02482 1.63829 
143 1 1 0.685047 3.08529 2.56975 
144 1 1 7.92424 3.71539 2.62012 
141 1 1 7.9963 3.10492 1.64623 
148 1 1 1.57103 4.02215 2.49786 
147 1 1 2.39933 3.18322 2.42987 
246 1 1 2.3935 4.02784 3.16444 
152 1 1 3.29312 4.09186 2.42275 
171 1 1 3.9736 4.92531 2.39288 
173 1 1 5.02133 4.871 1.61721 
154 1 1 5.70439 3.90348 1.65927 
273 1 1 4.77672 4.87883 2.95323 
156 1 1 4.89059 3.98861 2.40618 
175 1 1 5.75507 4.85175 2.37916 
254 1 1 5.69023 4.13399 3.17327 
160 1 1 6.44487 4.14932 2.4675 
158 1 1 7.26857 4.28233 1.76441 
162 1 1 0.891403 5.70014 1.65855 
181 1 1 8.01029 6.4008 1.82735 
242 1 1 0.781903 4.82178 2.5236 
164 1 1 0.0950194 5.62516 2.47975 
262 1 1 0.774905 5.6772 3.32633 
265 1 1 1.5909 5.02448 3.09533 
168 1 1 1.5677 5.70431 2.38054 
167 1 1 2.54268 4.87235 2.43757 
266 1 1 2.49053 5.66794 3.33502 
169 1 1 3.31114 4.88064 1.58826 
170 1 1 3.99651 5.6023 1.66876 
269 1 1 3.29654 4.96158 3.31256 
172 1 1 3.27611 5.65522 2.38985 
270 1 1 4.12917 5.61043 3.12981 
197 1 1 6.59138 6.41941 1.8933 
176 1 1 4.899 5.71286 2.30672 
195 1 1 5.76302 6.44417 2.52702 
180 1 1 6.36289 5.6384 2.6565 
178 1 1 7.27914 5.48648 1.81717 
177 1 1 6.38692 4.96426 1.60354 
277 1 1 6.60684 4.86901 3.22855 
179 1 1 7.554 4.84017 2.57043 
199 1 1 7.30112 6.47773 2.6674 
183 1 1 0.812154 6.37934 2.52473 
187 1 1 2.55035 6.37319 2.39706 
188 1 1 1.76483 7.30732 2.47227 
192 1 1 3.23825 7.16393 2.55504 
286 1 1 2.41266 7.39619 3.21819 
191 1 1 4.03232 6.48992 2.38639 
293 1 1 4.86254 6.48012 3.22921 
290 1 1 4.05564 7.3279 3.3199 
196 1 1 4.98126 7.1987 2.41062 
115 1 1 5.73375 7.91158 2.58898 
200 1 1 6.592 7.27741 2.70485 
117 1 1 6.48255 7.89429 1.82876 
119 1 1 7.44489 0.142325 2.55932 
184 1 1 7.97786 7.28812 2.5176 
202 1 1 0.773495 0.889342 3.23854 
203 1 1 0.938866 8.0315 3.9181 
204 1 1 8.0519 0.653891 4.15223 
205 1 1 1.65982 0.113896 3.11274 
208 1 1 1.74961 0.778187 3.95478 
227 1 1 2.40946 1.62461 3.93125 
207 1 1 2.57122 0.0487806 4.00257 
212 1 1 3.23689 0.957214 4.12409 
211 1 1 3.87758 8.0728 3.9938 
333 1 1 4.93365 1.57929 5.02081 
216 1 1 4.7236 0.755568 4.10555 
214 1 1 5.44819 0.915024 3.39922 
237 1 1 6.41747 1.48287 3.2082 
220 1 1 6.54089 0.750132 4.07326 
235 1 1 5.7832 1.52358 4.0842 
314 1 1 5.71511 0.757956 4.91846 
218 1 1 7.32565 0.838096 3.34761 
239 1 1 7.09763 1.66684 4.14169 
223 1 1 0.784217 1.57145 4.03009 
222 1 1 0.679629 2.3261 3.26786 
243 1 1 0.572949 3.18298 3.89401 
224 1 1 8.04388 2.28837 4.07763 
225 1 1 1.53426 1.62861 3.23025 
228 1 1 1.49711 2.38503 3.94854 
232 1 1 3.3346 2.41789 4.2294 
247 1 1 2.46957 3.21392 3.84743 
345 1 1 1.48305 3.25954 4.50957 
249 1 1 3.23507 3.13253 3.1395 
231 1 1 4.14906 1.73479 4.09508 
251 1 1 3.94204 3.22831 3.98115 
330 1 1 3.96092 2.60139 5.05076 
349 1 1 3.10044 3.23792 4.87778 
236 1 1 4.83776 2.50338 4.14966 
255 1 1 5.61231 3.20795 3.94375 
240 1 1 6.37631 2.39865 4.29269 
357 1 1 6.42848 3.2347 4.87373 
238 1 1 7.06223 2.4708 3.16921 
338 1 1 7.25044 2.29572 4.8206 
241 1 1 7.81963 3.12528 3.37887 
244 1 1 0.781334 4.11665 3.52089 
261 1 1 0.110925 4.83292 3.44523 
358 1 1 7.96545 4.1218 4.0902 
263 1 1 0.904354 4.96073 4.32072 
248 1 1 1.77256 4.19134 3.9729 
252 1 1 3.21482 4.14443 3.94534 
346 1 1 2.57522 4.14302 4.78037 
250 1 1 4.02037 4.02559 3.18984 
271 1 1 4.02302 4.72285 3.94725 
256 1 1 4.81464 4.0537 4.02385 
353 1 1 4.68315 3.30634 4.79783 
350 1 1 3.92611 4.04486 4.84532 
257 1 1 6.31364 3.14383 3.26103 
275 1 1 5.44355 4.90195 3.98849 
258 1 1 7.28123 4.14517 3.30862 
259 1 1 7.04058 3.16063 4.01982 
260 1 1 6.38467 4.03994 4.16511 
279 1 1 7.23065 4.89503 4.06403 
379 1 1 7.34189 4.14073 5.00825 
264 1 1 0.0268055 5.65095 4.04967 
283 1 1 0.925139 6.30182 4.18485 
268 1 1 1.71167 5.60044 4.10649 
281 1 1 0.0635191 6.54539 3.31567 
267 1 1 2.55062 4.8565 3.95804 
365 1 1 1.86691 4.92124 4.90228 
287 1 1 2.42954 6.54129 3.82156 
369 1 1 3.30022 4.8938 4.85435 
285 1 1 1.66426 6.45651 3.19581 
272 1 1 3.47856 5.72097 4.00439 
291 1 1 4.0335 6.61052 4.12898 
276 1 1 4.66286 5.83186 3.98957 
373 1 1 4.67465 4.8412 4.76426 
274 1 1 5.42956 5.62183 3.087 
295 1 1 5.60325 6.35025 3.97546 
374 1 1 5.61685 5.62925 4.80444 
280 1 1 6.45018 5.64149 4.04893 
278 1 1 7.34443 5.58102 3.14162 
299 1 1 7.39989 6.37704 3.95838 
381 1 1 8.00659 6.33641 4.9411 
378 1 1 7.21709 5.70777 4.75213 
282 1 1 0.932996 7.20211 3.30394 
284 1 1 0.000916134 7.37192 4.03199 
201 1 1 0.159824 0.0351156 3.26357 
382 1 1 0.893359 7.27653 4.74714 
289 1 1 3.28862 6.37898 3.17634 
288 1 1 1.63174 7.17914 3.94831 
386 1 1 2.38548 7.1865 4.92205 
305 1 1 1.73208 7.99658 4.65573 
292 1 1 3.12625 7.29023 4.17636 
296 1 1 4.8942 7.40206 3.93613 
217 1 1 6.53951 0.249674 3.19784 
297 1 1 6.51296 6.52608 3.32645 
397 1 1 6.34573 6.46445 4.88592 
294 1 1 5.75639 7.14581 3.3531 
215 1 1 5.58087 0.208619 4.07527 
219 1 1 7.28036 7.99129 4.18567 
298 1 1 7.30214 7.48467 3.30927 
300 1 1 6.41854 7.13919 4.08878 
325 1 1 1.66579 1.70413 4.77153 
302 1 1 0.83183 0.705908 4.82086 
303 1 1 0.696547 0.0111751 5.63496 
425 1 1 1.61582 1.51073 6.49405 
301 1 1 0.0144135 7.99038 4.9652 
402 1 1 0.739133 0.7811 6.47142 
308 1 1 1.71591 0.926449 5.60189 
306 1 1 2.37677 0.846421 4.73699 
327 1 1 2.33611 1.71764 5.74371 
312 1 1 3.13955 0.845423 5.51752 
309 1 1 3.14453 7.98446 4.88193 
310 1 1 3.97576 0.701795 4.82845 
313 1 1 4.78674 8.05932 4.96777 
316 1 1 4.85331 0.794929 5.83419 
311 1 1 4.09734 0.0100482 5.85902 
410 1 1 3.93535 0.863323 6.46616 
320 1 1 6.35367 0.752678 5.73232 
315 1 1 5.57327 7.97226 5.68719 
417 1 1 6.62756 7.98217 6.44418 
437 1 1 6.54107 1.53689 6.49784 
304 1 1 8.03664 0.767204 5.66087 
318 1 1 7.12406 0.752871 4.95254 
339 1 1 7.20613 1.58111 5.68233 
418 1 1 7.33955 0.699735 6.46749 
321 1 1 8.00407 1.5488 4.8017 
322 1 1 0.747229 2.44521 4.87033 
323 1 1 0.971241 1.66179 5.69837 
422 1 1 0.789856 2.29911 6.54122 
328 1 1 1.56201 2.44805 5.56028 
326 1 1 2.33403 2.5968 4.74728 
426 1 1 2.33698 2.40045 6.61782 
332 1 1 3.04136 2.44483 5.67486 
331 1 1 3.87676 1.68699 5.7866 
329 1 1 2.94147 1.57687 4.8856 
336 1 1 4.94692 2.44059 5.6544 
433 1 1 4.75112 1.82375 6.45548 
337 1 1 6.29637 1.60572 4.99813 
335 1 1 5.56757 1.64198 5.88537 
334 1 1 5.49 2.55318 4.86817 
324 1 1 8.01491 2.31446 5.64854 
340 1 1 6.27882 2.46417 5.59662 
359 1 1 7.10091 3.30708 5.65813 
341 1 1 7.99312 3.07997 4.87848 
361 1 1 8.03287 4.90374 4.86939 
343 1 1 0.698955 3.03687 5.713 
342 1 1 0.659318 3.87692 4.72638 
363 1 1 1.00862 4.85978 5.58224 
442 1 1 0.876775 4.23319 6.46735 
348 1 1 1.24356 3.87075 5.58274 
347 1 1 2.21552 3.31178 5.66677 
352 1 1 3.17791 4.09125 5.61815 
351 1 1 3.74116 3.25434 5.9135 
356 1 1 4.66765 3.9895 5.56419 
450 1 1 3.94 4.18801 6.61118 
355 1 1 5.72857 3.44632 5.67955 
354 1 1 5.43138 4.0884 4.86776 
360 1 1 6.28234 4.3036 5.62139 
377 1 1 6.50474 4.96044 4.77307 
375 1 1 5.37471 4.868 5.55432 
473 1 1 4.79111 4.96673 6.43671 
344 1 1 0.205279 4.22173 5.4953 
458 1 1 7.33034 4.33701 6.32516 
478 1 1 7.2242 4.9986 5.61413 
362 1 1 0.905407 5.63535 5.00576 
383 1 1 0.885377 6.38624 5.56445 
462 1 1 0.989839 5.63602 6.43256 
366 1 1 2.67069 5.68641 4.63383 
385 1 1 1.78109 6.32394 4.96298 
367 1 1 2.23032 4.4103 5.769 
368 1 1 1.74685 5.50753 5.76618 
372 1 1 3.13592 5.5352 5.69186 
370 1 1 3.83726 5.72985 4.93173 
371 1 1 4.07741 4.87646 5.63346 
376 1 1 4.70565 5.7918 5.58187 
393 1 1 4.77799 6.45062 4.84701 
391 1 1 4.03568 6.58451 5.71664 
380 1 1 6.26215 5.51254 5.60956 
474 1 1 5.52925 5.69925 6.43632 
364 1 1 0.0436728 5.66379 5.65191 
399 1 1 7.32473 6.31986 5.78325 
497 1 1 6.46872 6.39632 6.47998 
384 1 1 0.0302449 7.11735 5.66985 
388 1 1 1.5545 7.28132 5.56857 
405 1 1 1.65249 0.0452061 6.36389 
387 1 1 2.47273 6.37973 5.65513 
307 1 1 2.42087 8.05041 5.67522 
389 1 1 3.30028 6.60501 4.90089 
390 1 1 4.00707 7.37593 4.92773 
392 1 1 3.29037 7.28202 5.76137 
396 1 1 4.84071 7.25097 5.58181 
317 1 1 6.40408 8.05513 4.90311 
394 1 1 5.61556 7.28742 4.79275 
395 1 1 5.61166 6.29558 5.5573 
319 1 1 7.28635 0.0278249 5.65526 
398 1 1 7.3175 7.3435 4.99861 
400 1 1 6.47667 7.21795 5.66853 
498 1 1 7.51275 7.12519 6.52573 
2 1 1 0.728015 0.754909 0.125602 
403 1 1 0.729771 7.87994 7.22512 
401 1 1 0.0782859 7.99447 6.50057 
423 1 1 0.627318 1.64341 7.26372 
6 1 1 2.37489 0.718941 8.06519 
406 1 1 2.5038 0.917924 6.35544 
9 1 1 3.3889 8.04407 8.05805 
408 1 1 1.39836 0.938595 7.37601 
412 1 1 3.15215 0.75493 7.20703 
407 1 1 2.23315 0.247694 7.2467 
409 1 1 3.19929 0.00697146 6.33757 
411 1 1 4.08817 7.97268 7.23711 
416 1 1 4.82645 0.798542 7.19843 
414 1 1 5.60106 0.715372 6.43551 
420 1 1 6.53851 0.653534 7.26612 
435 1 1 5.633 1.4908 7.14896 
404 1 1 0.0787077 0.705249 7.34478 
439 1 1 7.36428 1.48073 7.19527 
22 1 1 0.69541 2.32395 0.106655 
25 1 1 1.56964 1.62108 8.05154 
428 1 1 1.51596 2.40225 7.35813 
45 1 1 1.5456 3.28722 0.0449362 
29 1 1 3.14349 1.59873 0.167366 
429 1 1 3.18477 1.72264 6.41878 
427 1 1 2.4797 1.53531 7.25302 
447 1 1 2.42231 3.27437 7.52032 
453 1 1 4.68539 3.24538 6.42596 
432 1 1 3.13555 2.33299 7.38903 
431 1 1 3.85304 1.57352 7.30842 
430 1 1 3.8329 2.48059 6.61246 
434 1 1 5.79148 2.57611 6.61991 
34 1 1 5.73233 2.27827 7.9495 
436 1 1 4.82422 2.49791 7.23286 
455 1 1 5.72789 3.36088 7.37177 
457 1 1 6.56582 3.32197 6.51654 
440 1 1 6.60128 2.57245 7.36312 
421 1 1 0.021119 1.59938 6.38627 
424 1 1 7.78537 2.46439 7.38244 
438 1 1 7.21414 2.35115 6.44969 
42 1 1 0.554919 4.02581 0.133705 
441 1 1 8.01702 3.58995 6.35401 
443 1 1 0.685403 3.08304 7.28163 
465 1 1 1.72537 4.8205 6.53861 
463 1 1 1.02437 4.62569 7.43172 
445 1 1 1.48337 3.23903 6.56748 
448 1 1 1.7296 3.93861 7.2867 
446 1 1 2.47479 3.85109 6.57889 
452 1 1 3.1285 4.15242 7.57032 
449 1 1 3.25664 3.30378 6.87983 
469 1 1 3.01998 4.71763 6.44035 
451 1 1 4.09717 3.28805 7.28958 
471 1 1 3.99337 4.87489 7.3796 
456 1 1 4.84048 4.04678 7.43382 
73 1 1 4.97748 5.07864 0.0694696 
57 1 1 6.48728 3.19092 0.051222 
454 1 1 5.49986 4.11214 6.40602 
477 1 1 6.30694 4.97874 6.4837 
475 1 1 5.51158 4.95237 7.16812 
459 1 1 7.33947 3.51175 7.275 
444 1 1 0.190501 4.08134 7.17868 
460 1 1 6.33769 4.18183 7.15498 
62 1 1 1.10814 5.6826 7.97087 
65 1 1 1.69774 4.88409 0.120184 
468 1 1 1.77508 5.58563 7.18385 
85 1 1 1.89878 6.55281 8.04189 
483 1 1 0.942162 6.41067 7.17595 
69 1 1 3.16616 4.87883 0.203074 
66 1 1 2.45345 5.6861 0.218811 
466 1 1 2.54801 5.56299 6.41607 
467 1 1 2.45385 4.8126 7.43757 
89 1 1 3.21826 6.5449 8.0691 
70 1 1 3.88651 5.71427 -0.00988063 
472 1 1 3.19805 5.6974 7.32618 
470 1 1 3.98017 5.73997 6.4317 
476 1 1 4.63725 5.75604 7.27264 
74 1 1 5.95671 5.59905 0.0994555 
495 1 1 5.74989 6.43817 7.26654 
479 1 1 7.22264 4.74517 7.33536 
461 1 1 0.166478 4.88163 6.58503 
481 1 1 0.277909 6.40918 6.38807 
464 1 1 0.00254818 5.70726 7.25488 
499 1 1 7.20262 5.70571 6.58087 
480 1 1 6.3985 5.63212 7.20907 
78 1 1 7.36469 6.43456 7.3594 
81 1 1 0.0929736 6.29717 0.0235805 
1 1 1 8.06016 8.05729 8.07442 
482 1 1 0.978514 7.21598 6.41767 
484 1 1 0.088972 7.04741 7.29957 
485 1 1 1.66614 6.52715 6.29875 
489 1 1 3.156 6.4505 6.48433 
487 1 1 2.44733 6.44052 7.19549 
488 1 1 1.75026 7.22119 7.16639 
486 1 1 2.36508 7.27932 6.44618 
492 1 1 3.22379 7.32148 7.15524 
413 1 1 4.89789 7.97574 6.62574 
491 1 1 3.8147 6.50087 7.24687 
490 1 1 4.04148 7.13235 6.55175 
496 1 1 4.95026 7.12361 7.33172 
17 1 1 6.3385 7.90113 7.94159 
493 1 1 4.8137 6.47899 6.5748 
494 1 1 5.72109 7.07923 6.36765 
415 1 1 5.73273 7.89248 7.17887 
98 1 1 7.50578 7.24655 0.04131 
500 1 1 6.5382 7.20172 7.12284 
419 1 1 7.40419 7.82996 7.2329 
