ITEM: TIMESTEP
13000
ITEM: NUMBER OF ATOMS
500
ITEM: BOX BOUNDS pp pp pp
0 8.07388
0 8.07388
0 8.07388
ITEM: ATOMS id type mass x y z 
8 1 1 1.74794 0.822268 0.942758 
4 1 1 8.02648 0.951769 0.803387 
102 1 1 0.821878 0.707362 1.6101 
12 1 1 3.37032 0.736881 0.76857 
29 1 1 3.20915 1.55853 0.206097 
109 1 1 3.36273 7.99918 1.5607 
7 1 1 2.68041 8.01004 0.78372 
9 1 1 3.23508 8.0085 8.02057 
10 1 1 3.87265 0.76088 7.91795 
31 1 1 4.01146 1.63092 0.876203 
11 1 1 4.04527 8.03026 0.589962 
16 1 1 4.89478 0.836101 0.610957 
114 1 1 5.73082 0.668305 1.60416 
20 1 1 6.39983 0.640294 0.83037 
133 1 1 4.80961 1.31923 1.57987 
118 1 1 7.26996 0.681451 1.44914 
23 1 1 0.856391 1.46819 0.903181 
24 1 1 0.0661621 2.51213 0.848161 
43 1 1 0.784579 3.29515 0.869183 
25 1 1 1.58983 1.48762 0.101349 
28 1 1 1.59901 2.38769 0.991475 
27 1 1 2.56062 1.66958 0.925342 
47 1 1 2.3316 3.15121 0.780755 
126 1 1 2.49998 2.59178 1.62049 
32 1 1 3.20913 2.55335 0.869508 
36 1 1 4.9508 2.41515 0.925182 
30 1 1 4.02596 2.33446 0.130457 
51 1 1 4.16549 3.05012 0.774451 
149 1 1 3.25926 3.26088 1.61541 
35 1 1 5.65794 1.49044 0.972798 
55 1 1 5.68565 3.14921 0.743353 
33 1 1 4.79995 1.52499 7.97124 
39 1 1 7.26889 1.68986 0.742411 
40 1 1 6.46503 2.43759 0.723099 
121 1 1 8.03795 1.74339 1.52594 
141 1 1 -0.00730681 3.35638 1.66364 
145 1 1 1.62258 3.33607 1.65213 
48 1 1 1.5712 4.12255 0.754722 
142 1 1 0.912674 4.17477 1.69591 
42 1 1 0.602909 4.14468 8.06901 
65 1 1 1.65735 4.94644 0.0894027 
67 1 1 2.62858 4.66486 0.820126 
69 1 1 3.44771 4.79631 0.0868579 
52 1 1 3.16345 3.70031 0.772108 
56 1 1 4.94894 4.05876 0.752977 
169 1 1 3.3003 4.71165 1.71526 
71 1 1 4.0634 4.66976 0.882824 
73 1 1 4.86597 4.7444 8.04451 
154 1 1 5.69839 4.12813 1.76089 
54 1 1 5.70207 4.04064 8.00885 
60 1 1 6.49596 4.04044 0.775122 
75 1 1 5.79499 4.72908 0.904499 
59 1 1 7.26774 3.25031 0.760974 
57 1 1 6.43574 3.29327 0.0321272 
44 1 1 8.05033 3.97028 0.82572 
58 1 1 7.25344 4.04474 8.01271 
161 1 1 7.21487 4.82584 0.903008 
63 1 1 0.744625 4.75137 0.76459 
62 1 1 0.757411 5.4812 0.104593 
181 1 1 7.96411 6.46388 1.56758 
85 1 1 1.63001 6.05632 0.420811 
81 1 1 0.0485441 6.46093 0.0841967 
68 1 1 1.99497 5.39926 1.04327 
87 1 1 2.55353 6.33805 0.767007 
66 1 1 2.605 5.67492 8.03452 
72 1 1 3.31571 5.39174 1.02983 
173 1 1 4.89443 4.82187 1.62723 
70 1 1 4.15585 5.57668 8.0591 
193 1 1 4.77312 6.36911 1.7104 
76 1 1 4.94463 5.69607 0.846139 
174 1 1 5.62547 5.69534 1.8337 
95 1 1 5.63316 6.38246 0.849197 
177 1 1 6.36723 4.84243 1.77502 
80 1 1 6.34948 5.66136 1.06216 
64 1 1 7.92607 5.64574 0.728399 
99 1 1 7.08143 6.38208 0.85245 
3 1 1 0.768714 7.91496 0.83838 
83 1 1 0.765742 6.27139 1.01049 
5 1 1 1.74362 7.97324 0.124841 
1 1 1 8.00037 0.0837603 0.080529 
82 1 1 0.854787 7.02088 0.148686 
88 1 1 1.93291 7.23415 0.78492 
92 1 1 3.40872 7.18266 0.962879 
91 1 1 4.04227 6.22092 0.890234 
96 1 1 4.8742 7.11375 0.806434 
89 1 1 3.34464 6.34109 0.0216047 
190 1 1 4.06448 7.17669 1.77352 
90 1 1 3.97067 7.14569 8.04106 
93 1 1 4.78748 6.35496 0.0524963 
15 1 1 5.66836 7.99381 0.897425 
100 1 1 6.46916 7.1876 0.915408 
97 1 1 6.38485 6.49738 0.0729431 
19 1 1 7.24118 0.00328469 0.806648 
84 1 1 7.97685 7.16606 0.810858 
198 1 1 7.14421 7.20118 1.67216 
117 1 1 6.48396 8.02966 1.58961 
101 1 1 8.08165 8.07681 1.66522 
123 1 1 0.727854 1.64744 2.33035 
104 1 1 8.04493 0.87408 2.20906 
105 1 1 1.79515 8.0199 1.67189 
103 1 1 0.864553 7.95698 2.3489 
202 1 1 0.828201 0.785703 2.90697 
129 1 1 3.26164 1.71421 1.65789 
106 1 1 2.54309 0.752418 1.62259 
108 1 1 1.66201 0.817644 2.31375 
107 1 1 2.53161 0.0813664 2.42824 
206 1 1 2.45081 1.00035 3.19686 
110 1 1 3.92142 0.862699 1.7385 
112 1 1 3.2415 0.87733 2.61468 
116 1 1 4.9023 0.863792 2.54832 
131 1 1 4.05105 1.6022 2.51728 
209 1 1 3.14776 8.07137 3.19826 
113 1 1 4.76588 0.143267 1.51227 
229 1 1 3.26627 1.61234 3.31089 
233 1 1 4.8392 1.60738 3.19869 
214 1 1 5.64876 0.845768 3.29265 
120 1 1 6.48346 0.958729 2.44788 
135 1 1 5.5871 1.63152 2.56489 
137 1 1 6.62102 1.47772 1.59213 
139 1 1 7.34258 1.65539 2.31184 
218 1 1 7.24507 0.963532 3.25736 
125 1 1 1.54448 1.67278 1.68199 
122 1 1 0.816929 2.4566 1.5573 
222 1 1 0.605154 2.4041 3.26712 
128 1 1 1.45649 2.56019 2.46738 
124 1 1 8.06076 2.5101 2.31412 
127 1 1 2.41041 1.7467 2.38877 
147 1 1 2.43744 3.27527 2.54614 
249 1 1 3.36088 3.18437 3.3917 
225 1 1 1.44396 1.70752 3.08568 
130 1 1 4.06562 2.53103 1.61848 
132 1 1 3.29803 2.4973 2.44114 
151 1 1 4.09133 3.24002 2.45757 
230 1 1 3.99897 2.4283 3.30187 
136 1 1 4.96985 2.43226 2.39994 
134 1 1 5.70589 2.32494 1.63421 
153 1 1 4.77289 3.25773 1.63466 
155 1 1 5.72853 3.30837 2.35317 
157 1 1 6.41916 3.07022 1.56936 
140 1 1 6.53828 2.44243 2.40381 
138 1 1 7.32801 2.43943 1.49621 
221 1 1 0.03676 1.53481 3.19315 
238 1 1 7.42169 2.38026 3.14003 
143 1 1 0.800153 3.39334 2.37703 
144 1 1 8.03267 4.17881 2.36029 
245 1 1 1.31099 3.24292 3.25757 
148 1 1 1.64868 4.05817 2.73784 
146 1 1 2.50345 3.9006 1.6323 
165 1 1 1.85858 4.69806 1.78107 
150 1 1 4.08956 3.93784 1.73781 
152 1 1 3.32903 3.92232 2.41879 
156 1 1 4.8064 4.08146 2.59239 
171 1 1 4.01887 4.81433 2.51458 
175 1 1 5.53139 4.78861 2.53983 
254 1 1 5.6998 3.8767 3.23261 
158 1 1 7.15184 4.03986 1.60352 
159 1 1 7.27831 3.29309 2.54313 
160 1 1 6.53602 4.00746 2.49064 
179 1 1 7.26247 4.96387 2.30936 
261 1 1 0.0629778 4.90063 3.15978 
242 1 1 0.947697 4.90054 2.53724 
162 1 1 1.08647 5.36896 1.51858 
168 1 1 1.63127 5.78098 2.42895 
183 1 1 0.826339 6.38642 2.27799 
164 1 1 0.0609886 5.78748 2.40788 
185 1 1 1.66684 6.29955 1.55074 
167 1 1 2.60878 4.70074 2.51189 
166 1 1 2.59217 5.62764 1.91806 
187 1 1 2.46497 6.49341 2.57201 
266 1 1 2.46328 5.65718 3.26705 
172 1 1 3.28355 5.68054 2.65045 
170 1 1 3.97552 5.62509 1.81981 
197 1 1 6.32566 6.49691 1.77553 
176 1 1 4.82986 5.56348 2.48305 
180 1 1 6.46361 5.70311 2.37877 
195 1 1 5.41407 6.48325 2.4836 
163 1 1 0.0482335 5.00698 1.64454 
178 1 1 7.23712 5.67439 1.60626 
199 1 1 7.24479 6.53707 2.48062 
278 1 1 7.27156 5.50812 3.41039 
182 1 1 0.835438 7.22563 1.57716 
205 1 1 1.60886 7.97516 3.26057 
282 1 1 0.914472 7.20349 3.19008 
188 1 1 1.69981 7.21409 2.47788 
186 1 1 2.47471 7.33414 1.72245 
111 1 1 3.93692 0.115913 2.5303 
189 1 1 3.1751 6.51464 1.83872 
191 1 1 4.14748 6.49749 2.53307 
192 1 1 3.31371 7.26828 2.59915 
196 1 1 4.73802 7.44877 2.47204 
194 1 1 5.45008 7.35337 1.61619 
115 1 1 5.51112 0.034268 2.48497 
293 1 1 4.95016 6.3217 3.33144 
184 1 1 0.0894446 7.20556 2.2856 
200 1 1 6.3201 7.37996 2.48532 
297 1 1 6.55712 6.29385 3.17065 
119 1 1 7.25263 0.0476022 2.33181 
204 1 1 0.0584133 0.779301 3.90784 
302 1 1 0.725608 0.730035 4.69476 
208 1 1 1.65886 0.802252 3.91906 
203 1 1 0.624821 8.01244 3.91142 
227 1 1 2.33879 1.63366 4.10247 
306 1 1 2.34858 0.929971 4.74168 
325 1 1 1.55973 1.71276 4.74807 
305 1 1 1.49126 8.01021 4.76202 
212 1 1 3.14144 0.895274 4.04623 
210 1 1 4.04098 0.791861 3.24678 
231 1 1 4.08262 1.5807 3.99145 
309 1 1 3.13363 0.186441 4.81813 
237 1 1 6.39942 1.73828 3.23833 
216 1 1 4.90024 0.883741 3.98978 
215 1 1 5.54816 8.04729 4.08034 
220 1 1 6.39181 0.839405 3.99359 
239 1 1 7.26577 1.65333 3.93922 
219 1 1 7.3051 0.0876244 4.00779 
301 1 1 7.93321 8.0479 4.88021 
318 1 1 7.32606 0.810218 4.73062 
223 1 1 0.793842 1.51766 3.9579 
224 1 1 -0.0149227 2.43483 4.04832 
321 1 1 0.0599903 1.47079 4.70883 
228 1 1 1.27471 2.55642 4.0541 
226 1 1 2.28232 2.39518 3.16951 
326 1 1 2.4279 2.54626 4.87429 
232 1 1 3.2318 2.38966 4.11998 
247 1 1 2.20532 3.27623 3.98496 
236 1 1 4.89485 2.3794 3.86481 
251 1 1 4.09359 3.01972 4.12936 
234 1 1 5.71309 2.50331 3.07386 
253 1 1 4.90085 3.16419 3.29045 
257 1 1 6.58358 3.04052 3.28215 
353 1 1 4.89622 3.03314 4.96129 
235 1 1 5.5929 1.66746 3.9931 
255 1 1 5.62157 3.14559 4.05708 
240 1 1 6.31672 2.39392 4.18434 
259 1 1 7.23162 3.03783 4.1541 
337 1 1 6.39565 1.45721 4.77059 
265 1 1 1.7316 4.94117 3.12232 
243 1 1 0.789824 3.46126 4.18557 
342 1 1 0.692264 4.24574 4.91232 
241 1 1 8.01017 3.55972 3.34395 
248 1 1 1.60043 4.17358 3.91009 
246 1 1 2.61769 3.92743 3.28554 
250 1 1 4.03933 4.03625 3.22846 
269 1 1 3.35657 4.73051 3.42645 
252 1 1 3.21517 3.98572 4.12408 
350 1 1 4.10831 3.83129 4.80825 
277 1 1 6.4038 4.93584 3.27212 
273 1 1 4.80769 4.74912 3.37787 
256 1 1 4.83933 4.00281 4.03201 
260 1 1 6.48585 3.81093 4.23734 
275 1 1 5.69768 4.6009 4.00536 
258 1 1 7.10727 4.12181 3.49868 
244 1 1 0.762654 4.14683 3.25754 
358 1 1 0.0495525 4.26814 4.1669 
279 1 1 7.16587 4.87845 4.26851 
357 1 1 6.30287 3.05158 4.92898 
262 1 1 0.880657 5.67289 3.19513 
263 1 1 0.843389 4.9967 4.00028 
283 1 1 0.773429 6.51478 3.93453 
267 1 1 2.41477 4.83414 4.04164 
268 1 1 1.64312 5.63833 4.14639 
287 1 1 2.36439 6.48747 4.03561 
272 1 1 3.12395 5.71127 4.14277 
285 1 1 1.62291 6.3497 3.26876 
366 1 1 2.32428 5.60756 4.88063 
271 1 1 4.19207 4.7718 4.25374 
270 1 1 4.16509 5.58295 3.35869 
291 1 1 3.91517 6.50114 4.18376 
289 1 1 3.25 6.51409 3.39695 
393 1 1 4.63309 6.65994 5.0091 
276 1 1 5.07824 5.54942 4.02561 
274 1 1 5.74377 5.64211 3.19338 
374 1 1 5.69247 5.82015 4.81359 
280 1 1 6.45441 5.6438 4.08912 
264 1 1 0.10111 5.59858 3.98341 
201 1 1 8.02773 8.03611 2.9934 
288 1 1 1.55118 7.08381 3.90062 
382 1 1 0.827485 7.32062 4.78756 
207 1 1 2.39526 8.06825 4.00059 
389 1 1 3.25088 6.36909 4.91169 
286 1 1 2.41617 7.20394 3.2613 
292 1 1 3.30379 7.35361 4.09828 
385 1 1 1.52042 6.54189 4.7645 
213 1 1 4.81729 0.0283439 3.28866 
211 1 1 3.92612 0.1211 3.97148 
290 1 1 4.07332 7.29286 3.2278 
390 1 1 3.97809 7.44746 4.8259 
313 1 1 4.72171 0.102756 4.84558 
294 1 1 5.58616 7.1967 3.23808 
295 1 1 5.75009 6.44314 4.04743 
296 1 1 4.75661 7.24249 4.00989 
217 1 1 6.50748 0.0722334 3.24018 
298 1 1 7.28055 7.43844 3.08399 
281 1 1 8.01582 6.42853 3.24785 
284 1 1 7.8937 7.23283 3.95728 
300 1 1 6.32287 7.34177 4.08098 
299 1 1 7.17603 6.40893 4.01033 
304 1 1 7.96645 0.701449 5.6658 
303 1 1 0.793003 8.03813 5.60585 
402 1 1 0.636615 0.920243 6.24252 
308 1 1 1.52499 0.7524 5.42496 
323 1 1 0.84322 1.64975 5.4739 
421 1 1 7.91121 1.50566 6.41846 
312 1 1 3.27637 0.924012 5.70036 
327 1 1 2.41636 1.7007 5.61515 
310 1 1 4.02182 0.893883 4.72514 
311 1 1 3.98497 0.108042 5.65339 
316 1 1 4.81887 0.725703 5.74473 
314 1 1 5.578 0.824707 4.86186 
417 1 1 6.40792 0.115558 6.3693 
414 1 1 5.61314 0.679981 6.39966 
320 1 1 6.44476 0.706357 5.59794 
319 1 1 7.17906 7.88914 5.75717 
339 1 1 7.16905 1.39844 5.65817 
401 1 1 8.00603 7.92954 6.40066 
322 1 1 0.645573 2.54114 4.97677 
328 1 1 1.53455 2.42952 5.52687 
324 1 1 7.93479 2.53967 5.79605 
422 1 1 0.783699 2.52522 6.36178 
329 1 1 3.08889 1.61056 4.85785 
347 1 1 2.26829 3.26678 5.66421 
332 1 1 3.25326 2.19529 5.62495 
330 1 1 4.35015 2.26372 4.93545 
331 1 1 4.08287 1.59166 5.6627 
336 1 1 4.99465 2.40067 5.80467 
333 1 1 4.85182 1.43959 4.70987 
430 1 1 4.10573 2.41013 6.41457 
449 1 1 3.21975 3.29855 6.236 
334 1 1 5.60731 2.25662 4.89871 
335 1 1 5.72175 1.50876 5.68492 
338 1 1 7.16122 2.14013 4.82512 
341 1 1 8.05469 3.27768 5.04272 
437 1 1 6.54147 1.55773 6.44536 
340 1 1 6.51641 2.17684 5.58251 
438 1 1 6.98188 2.45094 6.45728 
345 1 1 1.56661 3.55939 4.84578 
343 1 1 0.811437 3.40768 5.65057 
442 1 1 0.94516 4.23422 6.48097 
465 1 1 1.62868 5.05756 6.36411 
365 1 1 1.54838 4.85604 4.87813 
369 1 1 3.26698 4.84014 4.73223 
346 1 1 2.46805 4.12084 4.86108 
348 1 1 1.53532 4.15371 5.64263 
352 1 1 3.35822 4.09101 5.63729 
367 1 1 2.4791 4.90196 5.56632 
349 1 1 3.34575 3.14895 5.07178 
351 1 1 4.17728 3.15239 5.62845 
371 1 1 4.05969 4.85379 5.42347 
355 1 1 5.56453 3.28457 5.73839 
354 1 1 5.51249 3.81638 4.87551 
356 1 1 4.70519 4.07089 5.60904 
454 1 1 5.42383 4.11677 6.34075 
377 1 1 6.46102 4.9957 5.01475 
361 1 1 0.103935 5.14672 4.85118 
344 1 1 0.0893906 4.20942 5.79704 
359 1 1 7.1764 3.30728 5.84956 
360 1 1 6.46041 4.09485 5.42787 
458 1 1 7.26939 4.24576 6.37017 
379 1 1 7.43332 3.98669 4.91958 
362 1 1 0.773828 5.80532 4.79723 
381 1 1 8.0029 6.54906 4.74339 
363 1 1 0.791318 5.0538 5.6079 
368 1 1 1.62475 6.00755 5.63489 
383 1 1 0.830937 6.70394 5.71268 
462 1 1 0.905139 5.87736 6.39355 
387 1 1 2.5652 6.47409 5.82088 
466 1 1 2.55519 5.45485 6.42126 
372 1 1 3.27282 5.52332 5.61434 
489 1 1 3.22965 6.41123 6.53441 
373 1 1 5.03042 4.81674 4.84998 
370 1 1 4.04516 5.71223 4.76502 
470 1 1 3.93478 5.69326 6.37578 
376 1 1 4.8002 5.72623 5.41674 
375 1 1 5.68885 4.94591 5.68199 
380 1 1 6.52688 5.66064 5.8689 
497 1 1 6.42752 6.51815 6.51904 
474 1 1 5.5798 5.72045 6.53692 
378 1 1 7.2046 5.87326 4.86597 
364 1 1 0.0452466 5.9358 5.64367 
477 1 1 6.36598 4.73437 6.40002 
482 1 1 0.723728 7.30369 6.57155 
384 1 1 8.06101 7.27752 5.60704 
388 1 1 1.61118 7.31822 5.62373 
481 1 1 8.0639 6.55668 6.55161 
386 1 1 2.27099 7.30602 4.81583 
307 1 1 2.42644 0.0959731 5.47105 
391 1 1 3.94964 6.54041 5.67291 
392 1 1 3.21414 7.38135 5.60786 
396 1 1 5.04252 7.3257 5.69553 
413 1 1 4.87748 8.03273 6.47306 
317 1 1 6.42685 0.0450618 4.77355 
315 1 1 5.75132 8.03348 5.61478 
395 1 1 5.71669 6.39256 5.65267 
394 1 1 5.46875 7.24952 4.77349 
494 1 1 5.60759 7.31 6.61365 
398 1 1 7.2121 7.32646 4.8191 
397 1 1 6.4127 6.49384 4.85499 
400 1 1 6.35287 7.2022 5.64703 
399 1 1 7.17852 6.63585 5.79687 
2 1 1 0.816529 0.633678 0.0623827 
403 1 1 0.842637 8.01087 7.3547 
408 1 1 1.60128 0.911037 7.2969 
6 1 1 2.47081 0.692537 0.0395026 
406 1 1 2.15669 0.892997 6.28649 
425 1 1 1.47418 1.69517 6.39372 
429 1 1 3.18714 1.61607 6.55362 
407 1 1 2.29016 0.0696203 7.2415 
412 1 1 3.09325 0.755868 7.24561 
410 1 1 3.99439 0.892167 6.57534 
14 1 1 5.78169 0.760913 7.9933 
37 1 1 6.40749 1.68185 0.0399413 
13 1 1 4.79968 8.06323 8.05197 
416 1 1 4.8639 0.824201 7.22454 
415 1 1 5.6671 0.0674757 7.27761 
404 1 1 7.97251 0.793884 7.30459 
420 1 1 6.43706 0.993287 7.26361 
18 1 1 7.15813 0.930192 7.97958 
418 1 1 7.20198 0.687912 6.33355 
419 1 1 7.08546 0.0679614 7.1911 
22 1 1 0.965239 2.45438 0.181543 
445 1 1 1.60966 3.20519 6.54295 
21 1 1 8.02139 1.71698 0.0330866 
423 1 1 0.719089 1.7032 7.18747 
428 1 1 1.7148 2.34505 7.17649 
424 1 1 8.07223 2.47689 7.17732 
45 1 1 1.54519 3.46804 8.09291 
26 1 1 2.45816 2.32092 0.211393 
427 1 1 2.41972 1.60949 7.5351 
426 1 1 2.48682 2.36362 6.47223 
432 1 1 3.21417 2.39865 7.37794 
49 1 1 3.08736 3.19633 7.98737 
53 1 1 4.88393 3.02039 0.0619063 
433 1 1 5.09255 1.5162 6.5117 
431 1 1 4.02909 1.71639 7.35359 
436 1 1 4.83219 2.36157 7.28881 
451 1 1 4.13851 3.15351 7.46958 
34 1 1 5.66009 2.36887 0.10363 
435 1 1 5.79451 1.8369 7.17179 
434 1 1 5.82714 2.42825 6.39255 
440 1 1 6.43572 2.60221 7.39211 
41 1 1 8.02949 3.26917 0.017565 
38 1 1 7.2934 2.50577 8.03883 
439 1 1 7.30121 1.77554 7.29148 
443 1 1 0.781258 3.2818 7.37479 
448 1 1 1.62256 4.05926 7.3327 
446 1 1 2.36578 3.89762 6.5358 
447 1 1 2.23329 3.2222 7.28691 
46 1 1 2.47085 4.13697 7.9797 
50 1 1 4.03956 3.96448 0.113189 
450 1 1 4.18847 3.90986 6.55542 
452 1 1 3.34581 3.72312 7.22835 
456 1 1 4.87915 3.8536 7.35131 
473 1 1 4.7598 4.93625 6.34003 
453 1 1 4.84769 3.11341 6.48589 
455 1 1 5.57379 3.08152 7.20467 
475 1 1 5.51168 4.7149 7.15713 
460 1 1 6.52327 4.06883 7.20133 
457 1 1 6.27651 3.35113 6.38369 
461 1 1 0.140575 5.00552 6.39835 
441 1 1 0.128899 3.40305 6.57965 
459 1 1 7.40083 3.45505 7.17632 
61 1 1 8.00326 4.9323 0.0573354 
444 1 1 7.89905 4.28286 7.14507 
485 1 1 1.62118 6.54513 6.565 
463 1 1 0.941096 4.86352 7.24928 
483 1 1 0.902304 6.48344 7.4045 
468 1 1 1.65532 5.74349 7.50429 
467 1 1 2.41896 4.94061 7.35806 
487 1 1 2.44498 6.39186 7.25315 
469 1 1 3.32108 4.5732 6.61479 
471 1 1 4.05672 4.50102 7.33919 
472 1 1 3.3648 5.58207 7.21091 
491 1 1 4.0627 6.37205 7.31042 
74 1 1 5.66114 5.58704 0.0710636 
476 1 1 4.75878 5.47003 7.27293 
480 1 1 6.44307 5.69391 7.34042 
79 1 1 7.14296 5.86667 0.0675711 
478 1 1 7.37179 4.98301 5.53456 
77 1 1 6.37695 4.82817 0.0100414 
464 1 1 0.0337547 5.83204 7.33043 
479 1 1 7.24821 4.99623 7.27873 
488 1 1 1.68707 7.26517 7.42608 
484 1 1 8.0699 7.3715 7.36291 
405 1 1 1.5489 -0.00964105 6.50399 
486 1 1 2.44574 7.42649 6.43864 
409 1 1 3.28879 8.07711 6.44725 
86 1 1 2.58868 7.08269 0.0711888 
492 1 1 3.38833 7.25667 7.15617 
490 1 1 4.13843 7.28202 6.35662 
411 1 1 4.01301 8.04357 7.26736 
493 1 1 4.89847 6.49268 6.25017 
496 1 1 4.74269 7.20835 7.25536 
17 1 1 6.38884 7.86389 0.0913695 
94 1 1 5.58954 7.31389 7.96983 
495 1 1 5.58697 6.48382 7.32521 
498 1 1 7.28942 7.30254 6.61207 
78 1 1 7.31232 6.38661 7.20988 
499 1 1 7.40859 5.58758 6.45934 
98 1 1 7.20851 7.04981 8.06421 
500 1 1 6.44955 7.17628 7.28827 
