ITEM: TIMESTEP
46000
ITEM: NUMBER OF ATOMS
500
ITEM: BOX BOUNDS pp pp pp
0 8.07388
0 8.07388
0 8.07388
ITEM: ATOMS id type mass x y z 
2 1 1 0.781682 0.845423 0.0909651 
21 1 1 0.180298 1.72428 0.0102087 
8 1 1 1.55442 0.899342 0.864982 
1 1 1 0.0360582 8.08435 8.03986 
3 1 1 0.831325 -0.0518362 0.729193 
7 1 1 2.34314 8.00491 0.931985 
6 1 1 2.39426 0.769941 0.119866 
12 1 1 3.33643 0.773127 0.866583 
25 1 1 1.69964 1.73827 0.0201844 
10 1 1 4.13306 0.788588 0.195296 
16 1 1 5.00898 0.9706 0.987376 
35 1 1 5.61442 1.80723 1.05229 
113 1 1 4.95416 0.0559901 1.58597 
114 1 1 5.85184 0.76545 1.62332 
14 1 1 5.69618 0.770895 8.11404 
4 1 1 8.07097 0.900909 0.723783 
20 1 1 6.54463 0.95632 0.87252 
39 1 1 7.32201 1.635 0.831443 
118 1 1 7.26634 0.730499 1.55131 
19 1 1 7.30201 0.0306367 0.655551 
23 1 1 0.918775 1.87885 0.889185 
28 1 1 1.68619 2.47242 0.873308 
22 1 1 0.879906 2.57567 8.07908 
24 1 1 0.0880761 2.52369 0.829768 
122 1 1 0.767487 2.65399 1.59126 
27 1 1 2.40041 1.72997 0.968773 
32 1 1 3.21395 2.29502 0.97154 
26 1 1 2.45892 2.37814 0.0586257 
33 1 1 5.03102 1.5943 8.14208 
31 1 1 4.11497 1.59821 0.885319 
30 1 1 4.2024 2.48016 0.0622205 
36 1 1 4.88574 2.72168 0.875244 
134 1 1 5.63701 2.63199 1.55206 
34 1 1 5.75558 2.52593 -0.033766 
40 1 1 6.43122 2.51921 0.823713 
57 1 1 6.48483 3.27902 0.0113863 
38 1 1 7.28473 2.3849 0.0852097 
137 1 1 6.47813 1.73031 1.62738 
141 1 1 -0.00466515 3.24142 1.64769 
157 1 1 6.47646 3.26205 1.58371 
43 1 1 0.94443 3.33761 0.841142 
48 1 1 1.77901 3.95224 0.722551 
44 1 1 8.08243 3.88269 0.806387 
47 1 1 2.53807 3.19792 0.804462 
52 1 1 3.22016 3.93149 0.819443 
67 1 1 2.22711 4.89628 0.749827 
145 1 1 1.66759 3.21657 1.54474 
51 1 1 3.84904 3.14694 0.774222 
153 1 1 4.87213 3.27092 1.69567 
53 1 1 4.94552 3.36911 0.0461223 
150 1 1 3.9544 4.08757 1.7806 
50 1 1 4.11411 3.93762 0.0527428 
56 1 1 4.66592 3.98751 0.905265 
55 1 1 5.74411 3.44754 0.793636 
173 1 1 4.69699 4.74855 1.54152 
154 1 1 5.54202 4.10875 1.61883 
59 1 1 7.18839 3.25819 0.767284 
60 1 1 6.48886 4.09596 0.834659 
161 1 1 7.30966 5.06627 0.660485 
158 1 1 7.25891 3.96742 1.61334 
163 1 1 7.99405 4.90389 1.47515 
41 1 1 8.11101 3.10981 8.02721 
63 1 1 1.13764 4.82165 0.830913 
83 1 1 0.836081 6.62311 0.833563 
64 1 1 0.0580733 5.88644 0.876022 
61 1 1 0.0741324 4.92379 0.106253 
81 1 1 0.0898225 6.57048 8.00992 
68 1 1 1.4901 5.86929 0.791286 
87 1 1 2.41969 6.57703 0.902787 
72 1 1 3.10377 5.5472 0.862062 
66 1 1 2.4076 5.65174 0.103259 
89 1 1 3.13416 6.41452 0.113803 
71 1 1 3.92274 4.6989 0.805803 
91 1 1 4.07465 6.31086 0.682523 
69 1 1 3.0036 4.73856 0.148208 
75 1 1 5.90372 4.88391 0.717519 
77 1 1 6.59228 4.94081 7.99122 
76 1 1 4.85857 5.60154 0.805114 
174 1 1 5.5924 5.67202 1.49422 
95 1 1 5.65251 6.36433 0.759558 
177 1 1 6.54759 4.82493 1.66977 
73 1 1 4.90071 4.74972 0.145094 
80 1 1 6.57672 5.75365 0.7303 
178 1 1 7.37062 5.67416 1.55979 
182 1 1 0.717656 7.33831 1.76873 
84 1 1 0.0109056 7.32272 0.710201 
105 1 1 1.4352 7.9892 1.69379 
82 1 1 0.758727 7.37128 7.94195 
185 1 1 1.55118 6.60966 1.5701 
88 1 1 1.61349 7.31755 0.771948 
92 1 1 3.16601 7.25251 1.04664 
9 1 1 3.15683 0.0359179 -0.00332492 
11 1 1 3.93712 8.05381 1.10484 
193 1 1 4.8139 6.31754 1.54212 
90 1 1 3.90481 7.23156 0.364168 
96 1 1 4.81627 7.11903 0.8115 
13 1 1 4.68249 7.98615 0.0621383 
15 1 1 5.64056 0.103119 0.76354 
93 1 1 4.94373 6.31089 8.00628 
94 1 1 5.64983 7.27438 0.150653 
117 1 1 6.57643 8.05103 1.37976 
99 1 1 7.21673 6.56078 0.776448 
101 1 1 8.02968 7.98868 1.53087 
100 1 1 6.37031 7.26213 0.867878 
98 1 1 7.40655 7.1918 8.067 
102 1 1 0.771877 0.754357 1.63487 
202 1 1 0.843207 0.767524 3.23874 
104 1 1 7.86592 0.843441 2.40216 
121 1 1 0.147998 1.75563 1.55634 
123 1 1 0.801792 1.54421 2.42324 
201 1 1 7.95476 7.97054 3.29006 
129 1 1 3.2053 1.46654 1.66705 
106 1 1 2.32579 0.663866 1.75493 
108 1 1 1.62731 0.739998 2.5297 
112 1 1 3.1974 0.775262 2.56425 
110 1 1 4.09678 0.815522 1.71289 
116 1 1 4.84627 0.800304 2.41216 
131 1 1 3.83918 1.65702 2.44177 
210 1 1 4.22839 0.746678 3.24714 
135 1 1 5.62908 1.45268 2.4051 
217 1 1 6.30401 0.0738224 3.1068 
120 1 1 6.72704 0.809649 2.45204 
214 1 1 5.48918 0.672972 3.4171 
139 1 1 7.28539 1.77823 2.24255 
237 1 1 6.33101 1.28693 3.31771 
128 1 1 1.52715 2.39804 2.47534 
143 1 1 0.861102 3.31158 2.62142 
125 1 1 1.62358 1.58016 1.7971 
126 1 1 2.42802 2.40632 1.76848 
127 1 1 2.53833 1.71593 2.52916 
132 1 1 3.19757 2.42344 2.6147 
147 1 1 2.28075 3.23446 2.37937 
133 1 1 4.78556 1.63624 1.75072 
130 1 1 4.01304 2.42511 1.61453 
151 1 1 4.01566 3.22283 2.54583 
230 1 1 4.19194 2.31722 3.18097 
136 1 1 4.94325 2.49308 2.40298 
140 1 1 6.37808 2.41535 2.36021 
155 1 1 5.72962 3.2985 2.33398 
124 1 1 0.0749894 2.48143 2.36498 
138 1 1 7.27897 2.56236 1.6192 
238 1 1 7.1478 2.48506 3.26773 
257 1 1 6.3043 3.12755 3.33549 
142 1 1 0.941029 4.08471 1.62442 
148 1 1 1.57012 4.00334 2.36245 
242 1 1 0.538683 4.88207 2.32481 
169 1 1 3.19129 4.74349 1.56813 
149 1 1 3.24948 3.21861 1.83591 
146 1 1 2.27443 4.19393 1.61412 
167 1 1 2.30062 4.96657 2.50474 
152 1 1 3.03733 4.05954 2.44008 
250 1 1 3.9481 4.16821 3.2301 
273 1 1 4.95099 4.8308 3.11371 
253 1 1 5.07751 3.21747 3.34257 
156 1 1 4.9157 3.91391 2.49582 
160 1 1 6.38319 4.10953 2.46996 
175 1 1 5.57884 4.96808 2.29245 
159 1 1 7.06867 3.23915 2.43231 
144 1 1 8.07156 3.99935 2.33263 
179 1 1 7.18902 5.04821 2.52142 
258 1 1 7.24305 4.18882 3.06396 
165 1 1 1.53214 4.93126 1.70546 
162 1 1 0.782317 5.66695 1.57815 
168 1 1 1.46097 5.83618 2.32575 
164 1 1 0.00930993 5.77988 2.5107 
166 1 1 2.30108 5.70882 1.59681 
172 1 1 3.38174 5.59464 2.26655 
187 1 1 2.39047 6.43678 2.51851 
266 1 1 2.38889 5.67666 3.18638 
285 1 1 1.5235 6.49883 3.28785 
170 1 1 4.0866 5.59397 1.48368 
269 1 1 3.1726 4.90708 3.02092 
171 1 1 4.19367 4.8137 2.43599 
176 1 1 4.87068 5.64295 2.42335 
195 1 1 5.71252 6.41334 2.36625 
274 1 1 5.65926 5.67982 3.1168 
180 1 1 6.43073 5.68516 2.15997 
293 1 1 4.7477 6.48541 3.07035 
181 1 1 0.0053401 6.6088 1.52211 
199 1 1 7.25325 6.43864 2.20588 
103 1 1 0.745295 8.13622 2.47722 
183 1 1 0.785536 6.58214 2.56058 
282 1 1 0.673855 7.37171 3.25882 
205 1 1 1.62755 0.0848951 3.40355 
186 1 1 2.37982 7.24658 1.65573 
107 1 1 2.22609 8.02975 2.51087 
188 1 1 1.50934 7.38661 2.58935 
189 1 1 3.27157 6.42061 1.58208 
190 1 1 4.02548 7.24478 1.83588 
191 1 1 4.07579 6.32326 2.36975 
109 1 1 3.03489 8.00207 1.66965 
192 1 1 3.0982 7.18635 2.39557 
111 1 1 3.9388 0.148878 2.46088 
290 1 1 3.90956 7.26776 2.93945 
194 1 1 5.57304 7.29512 1.70523 
115 1 1 5.52763 -0.0227556 2.46063 
196 1 1 4.86106 7.21443 2.36869 
294 1 1 5.58065 7.21186 3.31598 
197 1 1 6.3572 6.55816 1.55607 
198 1 1 7.21753 7.29448 1.60961 
119 1 1 7.20284 7.87326 2.42418 
184 1 1 8.04154 7.31115 2.38013 
200 1 1 6.38788 7.19904 2.46237 
298 1 1 7.29071 7.28439 3.36557 
223 1 1 0.816583 1.47023 3.9434 
203 1 1 0.897441 0.115486 4.04506 
206 1 1 2.47779 0.672533 3.27938 
208 1 1 1.6668 0.777854 4.09993 
212 1 1 3.25445 0.79779 4.04905 
213 1 1 4.75461 7.82543 3.11599 
233 1 1 4.82533 1.57709 3.16487 
211 1 1 4.12463 7.93644 4.04149 
310 1 1 3.98427 0.879561 4.88576 
216 1 1 4.81509 0.782227 4.23346 
215 1 1 5.46147 7.98231 4.41542 
220 1 1 6.23192 0.793572 4.14998 
235 1 1 5.54677 1.54205 4.14243 
337 1 1 6.29198 1.56323 4.83816 
204 1 1 7.87263 0.801236 3.96324 
221 1 1 7.80039 1.56358 3.16327 
321 1 1 0.182525 1.42008 4.82308 
218 1 1 7.19408 0.742849 3.31107 
239 1 1 7.0456 1.68882 4.02523 
318 1 1 7.32563 0.677066 4.9905 
222 1 1 0.80555 2.331 3.24444 
245 1 1 1.52445 3.16378 3.32295 
243 1 1 0.670396 3.22209 3.98593 
228 1 1 1.64066 2.38696 4.03022 
229 1 1 3.33015 1.50361 3.30061 
227 1 1 2.40774 1.6657 3.89626 
225 1 1 1.5302 1.67916 3.19854 
226 1 1 2.33416 2.46119 3.1582 
232 1 1 3.38412 2.41383 3.97717 
231 1 1 4.01612 1.60089 4.08716 
251 1 1 4.19988 3.15221 3.88818 
333 1 1 4.83347 1.54689 4.92666 
236 1 1 4.87206 2.35219 4.05265 
234 1 1 5.55607 2.24713 3.20583 
255 1 1 5.64246 3.12046 4.11891 
224 1 1 8.05391 2.29558 4.02113 
240 1 1 6.2124 2.3861 4.03464 
241 1 1 7.96057 3.19654 3.08074 
259 1 1 7.21912 3.27774 4.02626 
244 1 1 0.687915 4.15197 3.17251 
263 1 1 0.787455 4.8894 4.04924 
265 1 1 1.50369 4.81443 3.21454 
246 1 1 2.2924 4.03276 3.1253 
247 1 1 2.49916 3.43734 4.01079 
248 1 1 1.52756 4.06906 3.94653 
267 1 1 2.51153 4.63469 3.96468 
249 1 1 3.12378 3.25758 3.21903 
252 1 1 3.43991 4.07272 4.11274 
271 1 1 4.14953 4.83674 4.0484 
254 1 1 5.73339 4.02973 3.27031 
256 1 1 4.78817 4.02208 3.98227 
277 1 1 6.43532 4.84566 3.21556 
275 1 1 5.70905 4.83998 3.98689 
354 1 1 5.64388 3.92449 4.9907 
260 1 1 6.5633 4.15751 4.03555 
358 1 1 8.03879 3.9129 4.17863 
377 1 1 6.42848 5.0465 4.89598 
262 1 1 0.816791 5.60446 3.23994 
268 1 1 1.65695 5.59518 3.89484 
264 1 1 0.0296817 5.66978 4.08217 
283 1 1 0.875118 6.31253 4.044 
289 1 1 3.27868 6.31018 3.18777 
287 1 1 2.31101 6.40546 3.97852 
272 1 1 3.30702 5.49908 3.9483 
365 1 1 1.76853 4.64748 4.81622 
366 1 1 2.2447 5.69181 4.80041 
270 1 1 4.01099 5.61295 3.23365 
370 1 1 3.96263 5.57049 4.74572 
276 1 1 4.94409 5.61163 4.0275 
280 1 1 6.45209 5.69576 4.07428 
374 1 1 5.55141 5.74368 4.90932 
281 1 1 0.057612 6.53032 3.27454 
278 1 1 7.2406 5.79968 3.2535 
297 1 1 6.36864 6.42426 3.42061 
279 1 1 7.45881 4.89486 3.96336 
261 1 1 0.026055 4.94333 3.13348 
378 1 1 7.14889 5.74128 4.90187 
382 1 1 0.863154 7.42093 4.88365 
288 1 1 1.55018 7.33886 4.01827 
286 1 1 2.31274 7.23782 3.2533 
207 1 1 2.51831 8.00843 4.03428 
309 1 1 3.4475 -0.00658592 4.90638 
209 1 1 3.30216 8.03568 3.33472 
313 1 1 4.66427 0.0190406 5.04625 
292 1 1 3.21672 7.21653 3.9211 
291 1 1 3.90876 6.39774 3.94885 
296 1 1 4.69829 6.99584 4.00088 
390 1 1 3.80749 7.18649 4.76877 
295 1 1 5.57398 6.40421 4.22648 
300 1 1 6.50042 7.21753 4.05046 
394 1 1 5.47794 7.20441 5.03908 
219 1 1 7.17136 0.065834 4.01479 
284 1 1 0.0265806 7.21908 4.25146 
299 1 1 7.35866 6.49347 4.17755 
398 1 1 7.2467 7.25058 4.85901 
302 1 1 0.936296 0.713137 4.85491 
323 1 1 0.971395 1.6102 5.35498 
303 1 1 0.749761 0.0895381 5.83782 
308 1 1 1.72756 0.806073 5.58295 
325 1 1 1.79063 1.59848 4.67543 
402 1 1 0.857961 0.98104 6.55798 
306 1 1 2.53265 0.828197 4.88 
307 1 1 2.49407 7.97392 5.63792 
327 1 1 2.45161 1.55995 5.52785 
329 1 1 3.36012 1.70194 4.84064 
429 1 1 3.01935 1.59677 6.5329 
312 1 1 3.26275 0.678402 5.7442 
316 1 1 4.8949 0.741296 5.82271 
311 1 1 4.04336 8.05878 5.90363 
410 1 1 3.91908 0.924576 6.60114 
314 1 1 5.50833 0.799139 4.90602 
320 1 1 6.34868 0.757282 5.56877 
335 1 1 5.60909 1.46968 5.85644 
317 1 1 6.54923 8.0678 4.85045 
304 1 1 0.180986 0.846086 5.73737 
339 1 1 7.2294 1.62552 5.42682 
301 1 1 -0.0223404 8.02663 4.93997 
322 1 1 0.796056 2.47574 4.61434 
345 1 1 1.7705 3.28879 4.70632 
328 1 1 1.78334 2.48477 5.43277 
343 1 1 0.705252 3.05657 5.48795 
326 1 1 2.46762 2.51752 4.65141 
330 1 1 4.09157 2.43615 4.80261 
349 1 1 3.2252 3.27506 4.8303 
331 1 1 4.0439 1.56774 5.73973 
332 1 1 3.27824 2.39963 5.61777 
351 1 1 4.02001 3.25076 5.58387 
449 1 1 3.20985 3.21416 6.37667 
334 1 1 5.50636 2.37485 4.88626 
353 1 1 4.84784 3.23554 4.89073 
336 1 1 4.82502 2.34088 5.77289 
324 1 1 0.0742929 2.20235 5.67032 
341 1 1 8.00745 3.13415 4.77049 
340 1 1 6.38723 2.32287 5.55726 
338 1 1 7.1887 2.42492 4.72205 
359 1 1 7.24095 3.05985 5.59939 
342 1 1 0.887616 3.92801 4.87899 
363 1 1 0.844189 4.72349 5.56507 
442 1 1 0.841821 4.04458 6.41901 
347 1 1 2.43785 3.26876 5.62829 
346 1 1 2.51393 4.01444 4.95552 
348 1 1 1.61576 3.85574 5.58039 
465 1 1 1.50472 4.85193 6.55412 
445 1 1 1.49585 3.06346 6.36633 
350 1 1 4.08749 4.00658 4.85262 
369 1 1 3.22293 4.87545 4.80337 
352 1 1 3.27457 3.95431 5.58717 
371 1 1 4.09071 4.77054 5.61317 
356 1 1 4.90146 4.06184 5.68894 
355 1 1 5.49867 3.14608 5.67035 
360 1 1 6.43434 4.32677 5.60647 
357 1 1 6.35306 3.24113 4.87632 
361 1 1 0.0147832 4.77137 4.79821 
441 1 1 7.94769 3.1858 6.40446 
344 1 1 8.06043 3.83276 5.52548 
379 1 1 7.12592 3.9423 4.90564 
457 1 1 6.45093 3.17286 6.25584 
362 1 1 1.00899 5.53898 4.74953 
364 1 1 0.150451 5.59953 5.57734 
383 1 1 0.955586 6.41845 5.8536 
381 1 1 0.203884 6.452 4.98007 
367 1 1 2.35179 4.76772 5.74468 
389 1 1 3.13375 6.19404 4.66146 
368 1 1 1.55835 5.45534 5.65862 
385 1 1 1.57784 6.65287 4.7682 
387 1 1 2.34385 6.34723 5.70315 
372 1 1 3.20123 5.40865 5.5767 
376 1 1 4.78719 5.91479 5.79802 
493 1 1 4.58759 6.54831 6.75998 
373 1 1 5.05951 4.82745 4.94779 
375 1 1 5.65059 5.0951 5.72694 
380 1 1 6.54175 5.65113 5.76689 
395 1 1 5.68126 6.51994 5.77905 
473 1 1 4.84792 4.87462 6.51149 
478 1 1 7.44619 4.87197 5.59884 
461 1 1 0.201522 4.89324 6.53545 
499 1 1 7.3064 5.5472 6.60837 
481 1 1 0.0410301 6.39859 6.48697 
305 1 1 1.79946 0.0209368 4.89718 
384 1 1 0.101378 7.18693 5.57827 
388 1 1 1.60865 7.40437 5.62734 
386 1 1 2.55709 7.17362 4.82762 
392 1 1 3.26796 7.3178 5.71819 
393 1 1 4.64423 6.42803 4.92502 
391 1 1 3.97037 6.4563 5.7626 
396 1 1 4.70565 7.21214 5.82213 
409 1 1 3.29795 0.102152 6.60544 
315 1 1 5.61804 0.102334 5.6082 
494 1 1 5.87664 7.45513 6.5352 
400 1 1 6.49383 7.33241 5.6469 
397 1 1 6.41522 6.44643 4.79616 
319 1 1 7.17187 0.16107 5.89243 
399 1 1 7.36941 6.33917 5.73703 
498 1 1 7.44084 7.22771 6.33829 
497 1 1 6.50201 6.5997 6.47619 
423 1 1 1.00165 1.66325 7.33182 
404 1 1 0.0923306 0.999949 7.3789 
401 1 1 -0.0230424 0.297894 6.56207 
403 1 1 0.867172 0.123809 7.19794 
406 1 1 2.39145 0.730917 6.39975 
408 1 1 1.69547 0.688104 7.302 
425 1 1 1.64269 1.53368 6.33897 
427 1 1 2.32385 1.76492 7.29854 
5 1 1 1.54361 0.039344 0.0502799 
407 1 1 2.45996 7.93453 7.33068 
412 1 1 2.81633 0.88619 7.29 
411 1 1 4.09378 0.0498689 7.33691 
431 1 1 4.10461 1.62054 7.36344 
433 1 1 4.80395 1.50954 6.55571 
414 1 1 5.81211 0.837286 6.62753 
416 1 1 4.92316 0.838394 7.27496 
18 1 1 7.27111 0.728452 7.73629 
37 1 1 6.28485 1.63541 0.162332 
417 1 1 6.57196 0.185546 6.74029 
420 1 1 6.44061 0.960729 7.40249 
418 1 1 7.30804 0.99648 6.52912 
421 1 1 8.06859 1.62155 6.5501 
422 1 1 0.845623 2.26209 6.43565 
424 1 1 8.01301 2.43322 7.24538 
443 1 1 0.798351 3.16255 7.28797 
49 1 1 3.10759 3.17546 8.04483 
428 1 1 1.59064 2.44967 7.15721 
426 1 1 2.36844 2.37662 6.34137 
447 1 1 2.35646 3.08672 7.19533 
29 1 1 3.37881 1.78692 0.137757 
453 1 1 4.80004 3.28442 6.43661 
432 1 1 3.21634 2.34411 7.34555 
430 1 1 4.08528 2.42119 6.53339 
436 1 1 4.97215 2.36607 7.25172 
434 1 1 5.69992 2.49965 6.44504 
437 1 1 6.48289 1.68828 6.47004 
435 1 1 5.69044 1.7109 7.29027 
455 1 1 5.68133 3.20293 7.20555 
440 1 1 6.44631 2.4184 7.29244 
438 1 1 7.20481 2.41362 6.4933 
439 1 1 7.30271 1.70486 7.37894 
45 1 1 1.64329 3.21003 8.01287 
42 1 1 0.81972 4.16712 0.00831343 
444 1 1 0.206121 4.00883 7.22501 
463 1 1 0.805123 4.87348 7.29656 
46 1 1 2.33981 3.88255 7.86146 
65 1 1 1.65392 4.72009 7.92647 
448 1 1 1.48489 3.96092 7.19462 
446 1 1 2.36334 3.95365 6.52616 
467 1 1 2.48702 4.9196 7.20687 
451 1 1 4.14137 3.2098 7.40618 
469 1 1 3.20844 4.92593 6.45503 
450 1 1 4.07105 4.06665 6.56232 
452 1 1 3.12709 4.02332 7.18235 
54 1 1 5.80561 4.08193 7.93107 
454 1 1 5.66846 4.17295 6.53611 
477 1 1 6.305 4.93525 6.50459 
456 1 1 4.92827 4.0385 7.29484 
460 1 1 6.61576 4.0724 7.15854 
58 1 1 7.29872 4.08145 0.00753015 
458 1 1 7.3267 4.13495 6.42431 
459 1 1 7.26578 3.1295 7.39066 
462 1 1 0.809858 5.74991 6.56343 
62 1 1 0.862735 5.6674 0.0488446 
464 1 1 0.112294 5.64274 7.45179 
466 1 1 2.23655 5.5985 6.39678 
468 1 1 1.5917 5.62266 7.35084 
472 1 1 3.14488 5.60001 7.25374 
70 1 1 3.88418 5.47433 0.140072 
470 1 1 4.1178 5.59007 6.65683 
471 1 1 4.10598 4.74654 7.38799 
476 1 1 4.90088 5.67747 7.31119 
475 1 1 5.5968 4.89805 7.26042 
74 1 1 5.70342 5.62734 8.02139 
474 1 1 5.71851 5.72867 6.54853 
79 1 1 7.39697 5.90067 8.02776 
479 1 1 7.58776 4.78155 7.28501 
480 1 1 6.56949 5.7203 7.2726 
85 1 1 1.56811 6.58025 -0.0447846 
405 1 1 1.64732 7.97683 6.49001 
483 1 1 0.909599 6.5084 7.23512 
482 1 1 0.908806 7.21694 6.47264 
488 1 1 1.62569 7.24339 7.38253 
485 1 1 1.72961 6.55196 6.61098 
484 1 1 0.141337 7.19857 7.1943 
86 1 1 2.41488 7.39003 0.0721474 
489 1 1 3.11769 6.24807 6.29061 
486 1 1 2.77006 7.22614 6.61509 
487 1 1 2.48314 6.35156 7.28019 
491 1 1 3.85799 6.35169 7.61074 
490 1 1 3.76742 7.22139 6.61487 
492 1 1 3.39624 7.32545 7.51769 
496 1 1 4.55345 7.13564 7.54755 
413 1 1 4.97131 0.0385557 6.67747 
415 1 1 5.69786 8.03773 7.35544 
495 1 1 5.64314 6.57183 7.30616 
78 1 1 7.34934 6.41024 7.18795 
97 1 1 6.61332 6.50768 7.97931 
17 1 1 6.5071 8.00628 8.06754 
500 1 1 6.60965 7.25677 7.21517 
419 1 1 7.48962 7.88257 7.23852 
