ITEM: TIMESTEP
17000
ITEM: NUMBER OF ATOMS
500
ITEM: BOX BOUNDS pp pp pp
0 8.07388
0 8.07388
0 8.07388
ITEM: ATOMS id type mass x y z 
8 1 1 1.53151 0.69002 0.648631 
102 1 1 0.604536 0.871065 1.53466 
121 1 1 8.01678 1.755 1.58881 
23 1 1 0.769663 1.62565 0.819713 
5 1 1 1.57221 8.05547 7.87032 
27 1 1 2.38496 1.62243 0.846216 
7 1 1 2.28646 7.92914 0.709821 
105 1 1 1.56709 0.0743749 1.67563 
12 1 1 3.20558 0.862076 0.875402 
11 1 1 4.04815 0.144251 0.871531 
16 1 1 4.92232 0.922353 0.771614 
113 1 1 4.81647 0.0684537 1.68289 
29 1 1 3.22005 1.51133 0.1759 
20 1 1 6.51343 0.728935 0.887186 
15 1 1 5.67298 0.26567 0.713955 
4 1 1 0.0186335 0.870791 0.735281 
18 1 1 7.22026 0.836026 7.99365 
39 1 1 7.18289 1.61156 0.684003 
101 1 1 0.0588002 8.06952 1.65947 
24 1 1 7.92147 2.29307 0.730739 
43 1 1 0.822211 3.267 0.697573 
45 1 1 1.68575 3.19656 7.7319 
28 1 1 1.62776 2.61437 0.512195 
32 1 1 3.28158 2.46992 0.786985 
47 1 1 2.46624 3.22519 0.641866 
31 1 1 4.10457 1.61398 1.00265 
30 1 1 4.06976 2.21763 0.0751169 
130 1 1 3.96285 2.55857 1.7041 
149 1 1 3.30589 3.30485 1.60092 
35 1 1 5.73311 1.53313 0.880979 
36 1 1 4.84155 2.4109 0.783034 
134 1 1 5.59493 2.30213 1.63288 
34 1 1 5.6341 2.45423 0.0643653 
55 1 1 5.63842 3.16887 0.849371 
37 1 1 6.43907 1.69163 7.99714 
40 1 1 6.47697 2.46924 0.752035 
38 1 1 7.19379 2.46742 8.02951 
138 1 1 7.16007 2.51597 1.51864 
142 1 1 0.90409 4.00181 1.69885 
44 1 1 0.115293 4.08249 0.890646 
63 1 1 0.956689 4.77392 0.819577 
48 1 1 1.69118 3.83508 0.435922 
145 1 1 1.82944 3.12785 1.56875 
67 1 1 2.28809 4.76838 0.6656 
65 1 1 1.59826 4.74512 7.9876 
165 1 1 1.63443 4.86056 1.61824 
51 1 1 3.92451 3.29899 0.749068 
52 1 1 3.10685 4.12837 0.697571 
56 1 1 4.81127 3.88063 0.746167 
150 1 1 4.2302 3.9663 1.7402 
169 1 1 3.19324 4.75818 1.45338 
75 1 1 5.4308 4.76123 0.77262 
59 1 1 7.18639 3.35125 0.832391 
61 1 1 8.0534 4.88305 0.0483844 
60 1 1 6.25155 4.08544 0.942356 
58 1 1 7.41698 4.09449 0.0666871 
57 1 1 6.31604 3.39694 7.99946 
41 1 1 8.04223 3.30906 8.06329 
64 1 1 8.05792 5.6348 0.917202 
81 1 1 8.05263 6.55072 8.06114 
162 1 1 0.857321 5.72668 1.54174 
68 1 1 1.53107 5.59476 0.580888 
66 1 1 2.34306 5.66886 0.0207855 
72 1 1 3.2599 5.56803 0.790134 
87 1 1 2.24833 6.3836 0.784715 
71 1 1 4.08063 4.78143 0.795111 
70 1 1 4.36817 5.82918 0.302658 
76 1 1 4.69413 5.54676 1.28325 
89 1 1 3.10504 6.47114 8.04137 
91 1 1 3.90764 6.51728 1.15372 
80 1 1 6.47904 5.68401 0.992246 
74 1 1 5.55834 5.71971 0.221814 
97 1 1 6.48069 6.36727 0.127952 
161 1 1 7.08265 4.8125 0.892497 
79 1 1 7.37781 5.60238 0.0410227 
99 1 1 7.24009 6.31256 0.750124 
1 1 1 7.99441 0.0471996 0.0870683 
83 1 1 0.657355 6.49815 0.919376 
3 1 1 0.809297 8.04637 0.752825 
82 1 1 0.801111 7.21994 8.04132 
181 1 1 7.98117 6.50499 1.50054 
88 1 1 1.3895 7.22637 0.800222 
92 1 1 2.99035 7.1576 0.862911 
86 1 1 2.23495 7.14376 0.0754196 
90 1 1 3.99521 7.1999 0.176107 
96 1 1 4.74517 7.10802 0.849068 
95 1 1 5.5969 6.49084 0.987479 
100 1 1 6.43941 7.14283 0.938454 
94 1 1 5.69356 7.2471 0.139338 
93 1 1 4.99759 6.60332 0.0878172 
17 1 1 6.41139 8.02089 0.0306805 
84 1 1 8.03551 7.37937 0.788733 
19 1 1 7.33784 0.114408 0.906315 
98 1 1 7.18157 7.36734 0.274118 
202 1 1 0.701182 0.884942 3.21208 
104 1 1 -0.0140366 0.933659 2.49904 
123 1 1 0.713446 1.87763 2.49956 
108 1 1 1.64031 1.02984 2.2326 
103 1 1 0.771132 0.168199 2.29932 
109 1 1 3.19215 7.96033 1.44687 
106 1 1 2.36277 0.877718 1.53077 
209 1 1 3.30711 0.0200661 3.20781 
110 1 1 4.05374 0.866364 1.67682 
112 1 1 3.32774 0.905933 2.50904 
116 1 1 4.96236 0.713807 2.51311 
111 1 1 4.08014 0.0564499 2.51978 
210 1 1 4.08494 0.91571 3.14459 
114 1 1 5.84073 0.766044 1.71826 
115 1 1 5.78626 8.01151 2.58245 
214 1 1 5.97716 0.774292 3.27677 
237 1 1 6.53831 1.59442 3.32299 
213 1 1 4.99337 -0.00137783 3.27749 
120 1 1 6.54682 0.800226 2.53018 
118 1 1 7.46066 0.934216 1.52164 
139 1 1 7.16452 1.6015 2.44613 
218 1 1 7.37957 0.881475 3.1556 
122 1 1 0.815149 2.45309 1.38692 
245 1 1 1.44337 3.25078 3.07912 
125 1 1 1.66999 1.77531 1.50522 
126 1 1 2.55652 2.40874 1.51814 
128 1 1 1.72257 2.35449 2.35568 
127 1 1 2.40739 1.6686 2.56613 
129 1 1 3.23116 1.57094 1.72056 
132 1 1 3.18071 2.51181 2.4616 
131 1 1 4.13737 1.70144 2.44259 
151 1 1 4.19244 3.22557 2.49598 
133 1 1 5.0364 1.4565 1.68648 
157 1 1 6.38897 3.199 1.55369 
135 1 1 5.88527 1.63172 2.45424 
136 1 1 4.94013 2.272 2.67353 
155 1 1 5.68594 3.07347 2.53569 
137 1 1 6.48795 1.70862 1.48344 
124 1 1 7.828 2.3559 2.48727 
140 1 1 6.52306 2.58148 2.56932 
238 1 1 7.23943 2.48914 3.2767 
141 1 1 7.98595 3.14267 1.47628 
143 1 1 0.680215 3.04524 2.5182 
144 1 1 0.0179398 4.04916 2.31626 
241 1 1 8.04608 3.29556 3.29398 
147 1 1 2.51917 3.41261 2.44402 
249 1 1 3.37018 3.35181 3.09091 
146 1 1 2.32972 3.99756 1.49065 
148 1 1 1.67492 4.13755 2.51792 
173 1 1 4.94359 4.66027 1.86144 
152 1 1 3.25239 4.16438 2.38061 
171 1 1 4.02254 4.8877 2.27599 
250 1 1 3.92681 4.15809 3.11048 
153 1 1 4.91919 3.05702 1.74923 
154 1 1 5.61895 3.87578 1.67061 
156 1 1 4.93037 3.94314 2.59488 
254 1 1 5.6935 3.95051 3.2916 
175 1 1 5.72018 4.7827 2.53851 
158 1 1 7.36678 4.01839 1.66199 
159 1 1 7.35919 3.26523 2.55271 
160 1 1 6.46305 3.886 2.41664 
258 1 1 7.28933 4.08472 3.36707 
163 1 1 0.190754 4.87285 1.53906 
242 1 1 0.996276 4.90918 2.41668 
262 1 1 0.767442 5.69462 3.28581 
168 1 1 1.84448 5.63119 2.41715 
261 1 1 7.94081 4.90007 3.27631 
189 1 1 2.93015 6.50734 1.76904 
167 1 1 2.43675 4.85445 2.29339 
166 1 1 2.39886 5.55265 1.47378 
266 1 1 2.4893 5.73341 3.35981 
172 1 1 3.10173 5.62977 2.39411 
170 1 1 3.79394 5.64055 1.65718 
176 1 1 4.91125 5.57562 2.3681 
177 1 1 6.48644 4.75748 1.76881 
174 1 1 5.6715 5.62012 1.6806 
197 1 1 6.50167 6.45931 1.7794 
179 1 1 7.32552 4.68099 2.44132 
180 1 1 6.36043 5.63293 2.41149 
178 1 1 7.25991 5.60708 1.79407 
164 1 1 0.136766 5.48883 2.42862 
183 1 1 0.739119 6.54596 2.16661 
285 1 1 1.46376 6.44276 3.09421 
182 1 1 0.903237 7.37979 1.63352 
188 1 1 1.55057 7.38665 2.48895 
184 1 1 0.0901456 7.27275 2.46216 
201 1 1 -0.011794 -0.00625961 3.19525 
185 1 1 1.61965 6.65803 1.63816 
186 1 1 2.31313 7.34602 1.58187 
107 1 1 2.56931 8.06349 2.35682 
187 1 1 2.40513 6.52974 2.71274 
193 1 1 4.83926 6.5439 1.80822 
191 1 1 4.00874 6.44588 2.37421 
192 1 1 3.17421 7.29262 2.46391 
190 1 1 3.97223 7.40051 1.776 
196 1 1 4.90147 7.32441 2.52626 
290 1 1 4.05343 7.25974 3.33385 
195 1 1 5.77341 6.43662 2.54418 
194 1 1 5.65748 7.48083 1.70064 
200 1 1 6.61792 7.39533 2.54803 
297 1 1 6.45086 6.5656 3.30705 
119 1 1 7.33237 0.0679805 2.43094 
281 1 1 0.0556609 6.41197 3.21862 
199 1 1 7.26581 6.4897 2.49479 
117 1 1 6.61633 8.01568 1.69139 
198 1 1 7.18941 7.16383 1.62836 
298 1 1 7.49111 7.17016 3.35092 
208 1 1 1.69613 0.646547 4.10092 
203 1 1 0.774674 0.0760189 4.13288 
206 1 1 2.33273 0.796758 3.42708 
212 1 1 3.37679 0.814938 4.01263 
207 1 1 2.5779 0.0990558 4.15754 
211 1 1 4.04641 8.05831 4.07804 
231 1 1 4.16815 1.68549 4.18869 
310 1 1 4.04891 0.76798 4.84999 
216 1 1 4.73874 0.763746 3.96555 
314 1 1 5.74132 0.767222 4.8174 
235 1 1 5.66404 1.52113 4.03746 
215 1 1 5.76961 0.11351 3.9504 
313 1 1 4.87919 7.88027 4.90446 
217 1 1 6.65509 8.01134 3.30662 
204 1 1 0.0580327 0.865838 3.94484 
220 1 1 6.54195 0.915633 4.07519 
221 1 1 0.102963 1.68573 3.28509 
225 1 1 1.47084 1.54661 3.16796 
223 1 1 0.792589 1.65168 4.12855 
222 1 1 0.849966 2.42596 3.44867 
228 1 1 1.72844 2.43498 4.01836 
227 1 1 2.29655 1.64603 4.11896 
226 1 1 2.36228 2.63019 3.07403 
232 1 1 3.2608 2.36016 3.98892 
326 1 1 2.36632 2.47487 4.86743 
233 1 1 5.03002 1.50024 3.27745 
229 1 1 3.22468 1.57915 3.24616 
230 1 1 4.03891 2.33247 3.32458 
236 1 1 4.95381 2.33569 4.04161 
234 1 1 5.7464 2.41567 3.27515 
253 1 1 4.91447 3.25641 3.35974 
255 1 1 5.69367 3.28402 4.12729 
239 1 1 7.27514 1.55358 4.10457 
224 1 1 8.01424 2.53175 4.08289 
240 1 1 6.4755 2.4379 4.04237 
257 1 1 6.54061 3.23138 3.29856 
244 1 1 0.749989 4.099 3.23123 
243 1 1 0.751886 3.25566 4.14833 
247 1 1 2.51938 3.19913 3.96467 
248 1 1 1.53172 3.93463 4.07879 
365 1 1 1.63076 4.82558 4.61746 
246 1 1 2.43625 4.07723 3.29268 
267 1 1 2.51853 4.89065 4.0771 
369 1 1 3.53589 4.78933 4.81118 
269 1 1 3.17909 4.86468 3.25837 
251 1 1 4.08455 3.21742 4.00665 
252 1 1 3.2859 4.04076 4.00977 
271 1 1 4.07909 4.83812 3.99866 
273 1 1 4.80115 4.89604 3.14405 
256 1 1 4.79833 4.0233 4.05417 
275 1 1 5.65579 4.94804 4.02611 
373 1 1 4.71814 4.88604 4.73468 
354 1 1 5.6387 4.05536 4.82578 
357 1 1 6.44692 3.24621 4.9228 
259 1 1 7.36482 3.34589 4.13352 
358 1 1 0.00813481 4.00645 4.10934 
260 1 1 6.55229 3.97752 4.26103 
341 1 1 0.046794 3.33292 4.95755 
263 1 1 0.771199 4.91188 3.98147 
362 1 1 0.923599 5.49871 4.86103 
283 1 1 0.880103 6.32874 4.19571 
268 1 1 1.72526 5.77648 4.01558 
385 1 1 1.58723 6.44471 4.94438 
265 1 1 1.5862 4.86601 3.4157 
272 1 1 3.19251 5.75504 4.18473 
287 1 1 2.43512 6.50002 4.2712 
366 1 1 2.43894 5.68526 4.86776 
389 1 1 3.18408 6.50396 4.88559 
289 1 1 3.24651 6.51799 3.25361 
270 1 1 3.90243 5.57376 3.1121 
370 1 1 4.02636 5.76902 4.79845 
274 1 1 5.61623 5.65063 3.18532 
276 1 1 4.8167 5.668 3.92184 
295 1 1 5.48913 6.44312 4.03892 
393 1 1 4.83026 6.57346 4.84256 
277 1 1 6.57782 4.7467 3.35321 
278 1 1 7.28949 5.68322 3.23844 
279 1 1 7.25546 4.7977 4.14929 
280 1 1 6.51894 5.60812 3.87312 
264 1 1 8.02487 5.71091 4.0301 
361 1 1 8.03295 4.89414 4.77886 
282 1 1 0.774568 7.21749 3.19868 
288 1 1 1.71206 7.3558 4.06686 
205 1 1 1.49282 0.15486 3.02553 
286 1 1 2.32342 7.54552 3.22848 
292 1 1 3.23182 7.28159 4.11268 
291 1 1 4.13932 6.37936 3.98356 
390 1 1 3.99406 7.08574 5.06679 
294 1 1 5.69409 7.25526 3.24709 
293 1 1 4.76811 6.44493 3.04948 
296 1 1 4.83973 7.34691 3.97956 
317 1 1 6.49814 0.0137096 4.64531 
394 1 1 5.70971 7.28759 4.77109 
299 1 1 7.1135 6.39544 4.07998 
284 1 1 0.12005 7.29257 4.08787 
300 1 1 6.39995 7.27918 4.00055 
397 1 1 6.49607 6.33449 4.91905 
219 1 1 7.42935 8.03027 4.05996 
302 1 1 0.861621 0.88881 4.88464 
304 1 1 8.06089 0.736077 5.63235 
325 1 1 1.59736 1.60057 4.9204 
323 1 1 0.838308 1.47819 5.69599 
309 1 1 3.32427 0.0555629 4.97411 
308 1 1 1.61196 0.581117 5.65932 
306 1 1 2.53951 0.842331 4.91618 
406 1 1 2.37623 0.782153 6.68453 
327 1 1 2.40233 1.86741 5.78832 
312 1 1 3.23209 0.863928 5.59237 
410 1 1 4.30729 0.787096 6.46147 
333 1 1 4.94178 1.53284 4.85289 
316 1 1 4.94512 0.719772 5.56087 
417 1 1 6.39532 7.91107 6.51926 
414 1 1 5.47103 0.919245 6.45012 
337 1 1 6.4674 1.65741 4.76275 
320 1 1 6.33764 0.743564 5.67123 
318 1 1 7.10085 0.84984 4.9462 
421 1 1 0.0544862 1.67253 6.40605 
321 1 1 7.97724 1.61957 4.86447 
322 1 1 0.628193 2.39919 4.87178 
324 1 1 8.10025 2.50436 5.72049 
328 1 1 1.49111 2.46518 5.66279 
425 1 1 1.56835 1.45609 6.54733 
349 1 1 3.23116 3.21007 4.86523 
329 1 1 3.30962 1.6011 4.67096 
429 1 1 3.3099 1.43783 6.4955 
332 1 1 3.2942 2.23511 5.50258 
426 1 1 2.2742 2.45185 6.71327 
331 1 1 4.13799 1.55905 5.58566 
330 1 1 4.12819 2.42279 4.91956 
351 1 1 3.96574 3.11731 5.61279 
353 1 1 4.91701 3.10976 4.93623 
449 1 1 3.21865 3.25602 6.31273 
334 1 1 5.74572 2.41937 4.80269 
336 1 1 4.85693 2.31236 5.53124 
335 1 1 5.71392 1.54263 5.67791 
434 1 1 5.69465 2.48234 6.35691 
453 1 1 4.82808 3.1936 6.4772 
355 1 1 5.68477 3.28296 5.70355 
339 1 1 7.22436 1.6198 5.67777 
340 1 1 6.60286 2.47123 5.62801 
338 1 1 7.22309 2.40358 4.81764 
342 1 1 0.820154 4.14198 4.7908 
345 1 1 1.60368 3.25482 4.95948 
343 1 1 0.825791 3.25266 5.62875 
442 1 1 0.783425 4.10672 6.37531 
445 1 1 1.56509 3.14467 6.37708 
346 1 1 2.54437 4.1481 4.77048 
347 1 1 2.4531 3.17265 5.6884 
348 1 1 1.52936 4.23767 5.50685 
352 1 1 3.16647 4.15726 5.65419 
350 1 1 4.18488 3.93817 5.02551 
371 1 1 4.02449 4.98148 5.67893 
356 1 1 4.90474 4.00173 5.6907 
454 1 1 5.63784 4.02189 6.42545 
477 1 1 6.45478 4.9064 6.51394 
375 1 1 5.71258 4.87438 5.54159 
377 1 1 6.506 4.88248 4.7419 
359 1 1 7.36751 3.24269 5.56127 
344 1 1 8.01295 4.08735 5.82411 
360 1 1 6.44312 3.96276 5.70384 
379 1 1 7.359 3.9377 4.96154 
461 1 1 0.129046 4.87699 6.57554 
458 1 1 7.26933 4.17601 6.6129 
381 1 1 0.130363 6.33582 4.9387 
363 1 1 0.64873 4.87368 5.66072 
364 1 1 -0.0276549 5.95201 5.78983 
383 1 1 0.850991 6.55361 5.67004 
367 1 1 2.42442 5.01784 5.79599 
368 1 1 1.48698 5.67455 5.75597 
372 1 1 3.25752 5.58151 5.70429 
376 1 1 4.86647 5.57671 5.57169 
470 1 1 4.09903 5.59658 6.62266 
391 1 1 4.18274 6.29878 5.73356 
374 1 1 5.59586 5.65364 4.86715 
474 1 1 5.57433 5.6397 6.53082 
395 1 1 5.53917 6.34513 5.62782 
380 1 1 6.59856 5.56991 5.68042 
497 1 1 6.37242 6.17329 6.44062 
378 1 1 7.4104 5.67998 4.83342 
478 1 1 7.44992 4.9122 5.72404 
399 1 1 7.15327 6.38154 5.73418 
499 1 1 7.26014 5.68746 6.57406 
382 1 1 0.658938 7.38791 4.91012 
305 1 1 1.54285 7.97247 4.83048 
303 1 1 0.739522 8.02472 5.68213 
301 1 1 7.9081 7.9535 4.99617 
307 1 1 2.36057 8.01321 5.67076 
387 1 1 2.33101 6.43826 5.6175 
386 1 1 2.38776 7.26523 4.8939 
388 1 1 1.61187 7.23322 5.61963 
486 1 1 2.55626 7.28998 6.48805 
405 1 1 1.51641 7.92312 6.48001 
493 1 1 4.88456 6.44623 6.46865 
392 1 1 3.24175 7.27874 5.70437 
311 1 1 4.0496 7.96334 5.65226 
396 1 1 4.83917 7.19746 5.70793 
413 1 1 5.19913 7.97222 6.33277 
490 1 1 3.9257 7.24216 6.42996 
315 1 1 5.75192 8.04915 5.49495 
400 1 1 6.25721 7.10185 5.5722 
398 1 1 7.13035 7.16238 4.94006 
319 1 1 7.09021 7.97662 5.59096 
384 1 1 7.96417 7.08273 5.68725 
401 1 1 7.87405 8.0147 6.40986 
498 1 1 7.16619 7.2187 6.39719 
2 1 1 0.661935 0.783868 7.95341 
402 1 1 0.632953 0.836687 6.49266 
408 1 1 1.48234 0.690175 7.20173 
6 1 1 2.35722 0.77892 0.0478481 
9 1 1 3.16568 0.100107 0.0555974 
412 1 1 3.25855 0.659994 7.27066 
427 1 1 2.32531 1.61808 7.309 
10 1 1 4.14132 0.815347 8.07519 
431 1 1 3.98302 1.52048 7.34211 
13 1 1 4.71591 8.05292 0.0384595 
416 1 1 4.94384 0.699761 7.35779 
14 1 1 5.82458 0.837807 7.93269 
21 1 1 8.00149 1.69924 7.97848 
418 1 1 7.26643 0.745037 6.2852 
420 1 1 6.37016 0.79237 7.12229 
404 1 1 8.01764 0.791579 7.21997 
22 1 1 0.690903 2.43571 8.04081 
422 1 1 0.84395 2.32325 6.47176 
423 1 1 0.720454 1.60288 7.31302 
428 1 1 1.46468 2.29303 7.38474 
424 1 1 8.02751 2.44187 7.2394 
25 1 1 1.46352 1.52209 8.06792 
26 1 1 2.51703 2.40333 0.0951101 
432 1 1 3.23767 2.27741 7.46202 
447 1 1 2.55031 3.31446 7.21266 
430 1 1 3.99438 2.25348 6.484 
451 1 1 4.0134 3.10071 7.13759 
33 1 1 4.95869 1.70529 7.91311 
53 1 1 4.73127 3.15408 8.0053 
433 1 1 4.94808 1.78645 6.46153 
435 1 1 5.74423 1.59435 7.20361 
436 1 1 4.78616 2.47104 7.24932 
437 1 1 6.61149 1.61551 6.52205 
438 1 1 7.27281 2.51496 6.41039 
441 1 1 8.04168 3.31331 6.44827 
440 1 1 6.50577 2.42126 7.25469 
439 1 1 7.33047 1.67892 7.23206 
42 1 1 0.784867 4.01799 7.98829 
443 1 1 0.685144 3.34651 7.22762 
448 1 1 1.55917 4.15386 7.14417 
444 1 1 0.0305487 4.13946 7.36054 
463 1 1 0.889771 4.90443 7.27743 
49 1 1 3.35897 3.10021 8.01626 
446 1 1 2.14396 4.08995 6.39622 
46 1 1 2.39841 4.09648 7.82021 
452 1 1 3.3111 4.01975 7.28477 
50 1 1 4.10776 4.10617 8.07896 
73 1 1 4.80442 4.93364 8.07358 
450 1 1 4.07736 3.89208 6.40278 
473 1 1 4.95531 4.8048 6.37969 
456 1 1 4.787 4.03882 7.32507 
69 1 1 3.17293 4.78352 8.05051 
77 1 1 6.49727 4.74058 0.0469131 
457 1 1 6.51106 3.24209 6.37392 
54 1 1 5.51303 3.95133 0.0297619 
455 1 1 5.59932 3.26841 7.24623 
475 1 1 5.63027 4.74544 7.36133 
460 1 1 6.45607 4.12529 7.26533 
459 1 1 7.32509 3.25446 7.3102 
62 1 1 0.656089 5.68979 0.164993 
85 1 1 1.44757 6.35278 8.05711 
462 1 1 0.744435 5.72967 6.45174 
468 1 1 1.61338 5.76305 7.26491 
465 1 1 1.46653 4.91164 6.42803 
466 1 1 2.24929 5.65696 6.5969 
469 1 1 3.18483 4.78428 6.67024 
467 1 1 2.24231 4.88057 7.15438 
472 1 1 3.20046 5.6791 7.30692 
487 1 1 2.34584 6.49195 7.36277 
489 1 1 3.22272 6.41 6.45582 
471 1 1 3.96616 4.77819 7.2615 
476 1 1 4.97271 5.63011 7.3521 
480 1 1 6.49345 5.60121 7.47999 
479 1 1 7.26208 4.81239 7.34785 
464 1 1 8.03641 5.71214 7.27654 
481 1 1 7.91504 6.54607 6.67434 
78 1 1 7.27491 6.51793 7.49137 
485 1 1 1.68696 6.48421 6.54371 
482 1 1 0.71276 7.21355 6.48511 
403 1 1 0.611736 8.03512 7.29297 
483 1 1 0.723474 6.33346 7.21585 
488 1 1 1.53027 7.31235 7.27209 
409 1 1 3.31388 0.117017 6.28137 
407 1 1 2.42309 8.04718 7.32255 
492 1 1 3.20387 7.39312 7.28623 
491 1 1 4.13727 6.22665 7.42296 
411 1 1 4.0933 8.01512 7.14019 
415 1 1 5.71641 -9.76711e-05 7.24443 
495 1 1 5.73606 6.3619 7.29722 
496 1 1 4.8639 7.2987 7.36096 
494 1 1 5.71589 7.10292 6.40864 
500 1 1 6.47927 7.23434 7.3435 
419 1 1 7.16881 0.138678 7.28589 
484 1 1 7.91672 7.3425 7.348 
