ITEM: TIMESTEP
31000
ITEM: NUMBER OF ATOMS
500
ITEM: BOX BOUNDS pp pp pp
0 8.07388
0 8.07388
0 8.07388
ITEM: ATOMS id type mass x y z 
2 1 1 0.849961 1.01123 0.10258 
4 1 1 8.06115 0.712802 0.758535 
8 1 1 1.69035 0.939137 0.853074 
7 1 1 2.41438 0.0829219 0.856088 
29 1 1 3.33935 1.58429 8.00867 
9 1 1 3.21395 8.07586 0.0792775 
6 1 1 2.41097 0.871945 0.0591593 
12 1 1 3.18337 0.90995 0.744791 
31 1 1 4.05938 1.49968 0.85623 
16 1 1 4.91612 0.675842 0.854861 
11 1 1 3.93487 0.0328229 0.752031 
109 1 1 3.35602 0.0645929 1.69258 
20 1 1 6.46897 0.839821 0.770826 
15 1 1 5.76338 7.92082 0.821908 
117 1 1 6.49018 8.01888 1.79563 
114 1 1 5.75772 0.615099 1.70012 
18 1 1 7.2702 0.695726 0.00643898 
19 1 1 7.12563 0.0207858 0.819316 
137 1 1 6.68556 1.54849 1.53552 
23 1 1 0.70369 1.66065 0.992008 
21 1 1 8.02847 1.70324 0.0849145 
24 1 1 7.79228 2.43818 0.794752 
28 1 1 1.45949 2.34514 0.815242 
43 1 1 0.666048 3.25558 0.825134 
27 1 1 2.41567 1.7722 0.85743 
126 1 1 2.33508 2.46807 1.68024 
129 1 1 3.30404 1.37249 1.70208 
149 1 1 3.20076 3.30033 1.70409 
32 1 1 3.26135 2.32661 0.968384 
36 1 1 4.83607 2.40688 0.851044 
133 1 1 4.87198 1.71698 1.76673 
130 1 1 4.01425 2.23353 1.60629 
30 1 1 4.18323 2.3386 7.96125 
35 1 1 5.69366 1.64073 0.748586 
40 1 1 6.51249 2.47633 0.844657 
55 1 1 5.66366 3.26064 0.863244 
39 1 1 7.21581 1.62461 0.722889 
59 1 1 7.20722 3.29041 0.758748 
38 1 1 7.14113 2.53582 0.0101689 
63 1 1 0.616955 4.8468 0.795341 
44 1 1 8.01596 3.98929 0.822009 
142 1 1 0.798515 3.95196 1.51642 
163 1 1 7.99754 4.80902 1.54744 
47 1 1 2.63317 3.19942 0.818636 
145 1 1 1.669 3.33574 1.28836 
45 1 1 1.56583 3.28647 0.199148 
65 1 1 1.65721 4.78922 0.0193455 
48 1 1 1.60141 4.17021 0.770724 
46 1 1 2.47719 4.00012 0.0471721 
52 1 1 3.37063 4.03639 0.712361 
51 1 1 3.97713 3.2825 0.778659 
73 1 1 4.88312 4.79591 0.0203675 
53 1 1 4.8708 3.29089 0.0679473 
50 1 1 4.0834 4.06971 8.06964 
56 1 1 4.81613 4.06859 0.84443 
54 1 1 5.6665 3.93866 0.0403656 
60 1 1 6.42088 3.93012 0.925261 
75 1 1 5.75441 4.68758 0.777844 
154 1 1 5.6877 4.01033 1.59222 
58 1 1 7.31277 4.08522 8.00476 
161 1 1 7.34506 4.81265 0.6758 
158 1 1 7.334 3.9923 1.61325 
157 1 1 6.48035 3.26593 1.65799 
68 1 1 1.75057 5.77612 0.730341 
83 1 1 0.660188 6.45207 0.862217 
185 1 1 1.48664 6.40295 1.52792 
67 1 1 2.55404 4.74413 0.856261 
72 1 1 3.21491 5.70485 0.819742 
166 1 1 2.44984 5.76778 1.50854 
69 1 1 3.28195 4.78754 0.0294892 
66 1 1 2.32912 5.60172 7.94337 
85 1 1 1.60233 6.60892 0.0757681 
71 1 1 4.04284 4.85372 0.860102 
89 1 1 3.14601 6.4847 0.0258656 
76 1 1 4.866 5.60909 0.853472 
80 1 1 6.57829 5.48797 0.766657 
174 1 1 5.81877 5.4979 1.52225 
64 1 1 7.98221 5.6546 0.764284 
79 1 1 7.29969 5.79191 0.035208 
99 1 1 7.13926 6.40881 0.815107 
177 1 1 6.60799 4.81549 1.58824 
1 1 1 8.00708 0.0141868 0.0107563 
3 1 1 0.742591 8.02466 0.860387 
84 1 1 8.03542 7.30891 0.774437 
82 1 1 0.699961 7.28742 7.95525 
87 1 1 2.44118 6.64364 0.948792 
189 1 1 3.20241 6.50896 1.61517 
88 1 1 1.43024 7.24129 0.776147 
5 1 1 1.46177 0.0773734 0.0367571 
92 1 1 3.18711 7.35291 1.08802 
91 1 1 3.99147 6.52237 0.864235 
193 1 1 4.91131 6.43339 1.65113 
190 1 1 4.11893 7.35381 1.64826 
95 1 1 5.82048 6.35076 0.830077 
96 1 1 4.82817 7.28074 0.716189 
100 1 1 6.38001 7.16426 0.878573 
17 1 1 6.43683 7.87536 0.0671444 
97 1 1 6.41333 6.27782 0.0161366 
98 1 1 7.0906 7.08593 0.0566714 
102 1 1 0.608735 0.895437 1.7098 
104 1 1 7.97282 0.972331 2.38532 
108 1 1 1.72476 0.733471 2.43652 
202 1 1 0.813422 0.872618 3.20688 
106 1 1 2.45941 0.825865 1.58288 
110 1 1 4.14685 0.757747 1.58607 
112 1 1 3.28005 0.691481 2.50253 
116 1 1 5.02465 0.840959 2.4279 
111 1 1 4.18591 0.16291 2.57768 
120 1 1 6.55107 0.913514 2.39183 
214 1 1 5.72519 0.72554 3.38254 
113 1 1 4.85084 8.06045 1.7869 
115 1 1 5.66131 7.87485 2.40493 
118 1 1 7.34846 0.731724 1.64892 
121 1 1 7.94752 1.6536 1.5215 
122 1 1 0.924899 2.53786 1.69162 
123 1 1 0.697509 1.65097 2.42803 
125 1 1 1.51056 1.6089 1.59116 
128 1 1 1.59531 2.50927 2.42427 
127 1 1 2.29089 1.71324 2.3684 
147 1 1 2.36539 3.41974 2.54188 
225 1 1 1.55637 1.69727 3.2274 
226 1 1 2.34967 2.46013 3.23959 
245 1 1 1.5872 3.37456 3.19361 
131 1 1 4.06663 1.55145 2.45541 
233 1 1 4.98401 1.44162 3.22112 
132 1 1 3.13869 2.45056 2.32627 
136 1 1 4.90869 2.46337 2.44162 
249 1 1 3.3607 3.32713 3.33544 
134 1 1 5.64698 2.5069 1.59413 
135 1 1 5.72606 1.63067 2.34755 
140 1 1 6.41867 2.37281 2.41811 
124 1 1 0.0448588 2.41559 2.38486 
138 1 1 7.25205 2.40404 1.6812 
139 1 1 7.25375 1.6611 2.50303 
159 1 1 7.38282 3.27687 2.33555 
238 1 1 7.10882 2.66648 3.21194 
143 1 1 0.779929 3.23046 2.44549 
242 1 1 0.866001 4.79821 2.3472 
146 1 1 2.46864 4.01262 1.4673 
148 1 1 1.64261 3.96814 2.15963 
152 1 1 3.27103 4.04975 2.50139 
165 1 1 1.65166 5.12611 1.67149 
150 1 1 3.95836 4.11458 1.59899 
153 1 1 4.89421 3.18185 1.52139 
151 1 1 3.85538 3.25461 2.47039 
156 1 1 4.76583 4.08214 2.3451 
155 1 1 5.61695 3.36087 2.41218 
173 1 1 4.81867 4.70894 1.60108 
175 1 1 5.6586 4.8742 2.3577 
273 1 1 4.93897 4.68913 3.21314 
257 1 1 6.50025 3.44236 3.02764 
141 1 1 8.06962 3.21194 1.61467 
160 1 1 6.47167 4.16076 2.29141 
144 1 1 0.0658445 4.10994 2.4615 
179 1 1 7.26816 4.86832 2.42143 
162 1 1 0.608915 5.59766 1.54649 
183 1 1 0.732684 6.29936 2.43918 
168 1 1 1.69953 5.81619 2.39278 
167 1 1 2.30364 4.72082 2.34276 
172 1 1 3.12668 5.65863 2.38359 
266 1 1 2.4011 5.67917 3.18538 
169 1 1 3.07901 4.82437 1.72978 
170 1 1 3.97624 5.68312 1.71033 
171 1 1 4.00079 4.85578 2.32184 
191 1 1 4.07577 6.32289 2.40955 
293 1 1 4.82753 6.33097 3.19629 
176 1 1 4.89965 5.55855 2.42844 
180 1 1 6.46305 5.61271 2.49767 
195 1 1 5.7568 6.32293 2.53672 
297 1 1 6.57923 6.49134 3.47325 
181 1 1 7.92536 6.37404 1.59549 
164 1 1 8.066 5.62004 2.44717 
197 1 1 6.40609 6.46415 1.7178 
178 1 1 7.16233 5.63256 1.53893 
199 1 1 7.20182 6.42402 2.51499 
101 1 1 8.06031 8.05706 1.61723 
103 1 1 0.750105 0.016028 2.39228 
182 1 1 0.836853 7.25324 1.71511 
188 1 1 1.73016 7.24121 2.5377 
187 1 1 2.61381 6.5162 2.42608 
105 1 1 1.48127 0.0721928 1.70005 
186 1 1 2.28047 7.32973 1.67053 
107 1 1 2.54218 7.97403 2.43809 
289 1 1 3.26928 6.37894 3.18158 
286 1 1 2.49266 7.37216 3.11882 
192 1 1 3.385 7.19975 2.34423 
290 1 1 3.92387 7.22706 3.23534 
196 1 1 4.78904 7.18604 2.58355 
194 1 1 5.61038 7.20346 1.62274 
200 1 1 6.57923 7.18808 2.46586 
201 1 1 0.00437474 0.13617 3.29425 
119 1 1 7.41139 0.00951207 2.44864 
184 1 1 8.01104 7.23663 2.3304 
198 1 1 7.22636 7.24248 1.53402 
204 1 1 0.0384029 0.789954 4.06701 
302 1 1 0.667879 0.951774 4.9039 
223 1 1 0.752649 1.69506 3.93731 
205 1 1 1.44992 0.0148292 3.09893 
206 1 1 2.41606 0.84505 3.21303 
208 1 1 1.62475 0.87455 4.06504 
306 1 1 2.32466 0.77061 5.0155 
210 1 1 4.10422 0.940096 3.33981 
212 1 1 3.27958 1.12486 3.9939 
310 1 1 4.08383 0.799573 4.89968 
209 1 1 3.31341 8.01089 3.23977 
217 1 1 6.59572 7.97632 3.13859 
216 1 1 4.90819 0.853196 4.04234 
220 1 1 6.3762 0.816471 4.29374 
235 1 1 5.68519 1.80392 3.97335 
218 1 1 7.29013 0.791617 3.35156 
219 1 1 7.18472 0.135967 4.18146 
318 1 1 7.26478 1.13427 4.88329 
221 1 1 8.05646 1.69705 3.2239 
222 1 1 0.964066 2.5052 3.19734 
224 1 1 8.0382 2.42177 3.96835 
321 1 1 0.0136111 1.74467 4.7507 
243 1 1 0.836844 3.15442 3.99727 
227 1 1 2.23764 1.59876 4.09132 
228 1 1 1.57192 2.34068 4.09697 
247 1 1 2.49925 3.16115 4.01757 
325 1 1 1.5118 1.592 4.87726 
345 1 1 1.60377 3.11089 4.90121 
231 1 1 4.1428 1.76586 4.03465 
232 1 1 3.35884 2.58607 4.14974 
229 1 1 3.202 1.59284 2.97835 
230 1 1 4.07234 2.47822 3.01772 
330 1 1 4.17308 2.40797 4.82614 
236 1 1 4.88908 2.53288 3.85537 
234 1 1 5.60144 2.50819 3.14678 
240 1 1 6.34207 2.64339 3.90681 
255 1 1 5.57483 3.33286 4.0394 
357 1 1 6.40529 3.36276 4.8665 
237 1 1 6.38465 1.65168 3.30925 
239 1 1 7.13708 1.72811 4.04131 
337 1 1 6.32983 1.79484 4.73556 
241 1 1 0.0136615 3.20204 3.18839 
259 1 1 7.18886 3.04297 4.19174 
261 1 1 0.058478 4.90248 3.17117 
244 1 1 0.725463 4.05818 3.26081 
263 1 1 0.960259 4.91376 4.02758 
358 1 1 8.05808 3.91532 4.02714 
342 1 1 0.805732 4.03441 4.72926 
265 1 1 1.72372 4.80406 3.1859 
248 1 1 1.76023 3.92155 4.01003 
246 1 1 2.48601 4.0263 3.29666 
252 1 1 3.16248 4.02463 4.10287 
267 1 1 2.40501 4.81168 4.14742 
349 1 1 3.30866 3.32243 4.87013 
251 1 1 4.13363 3.23318 3.9997 
250 1 1 4.04994 4.09758 3.33838 
256 1 1 4.81841 4.08656 4.10861 
271 1 1 4.13411 4.90486 3.88662 
350 1 1 4.15751 3.92708 4.88207 
254 1 1 5.66422 4.07337 3.20477 
253 1 1 4.72992 3.22422 3.08669 
275 1 1 5.71211 4.78489 3.92336 
354 1 1 5.68145 4.12724 4.82813 
258 1 1 7.37951 4.11417 3.23262 
260 1 1 6.55559 3.93343 3.97437 
262 1 1 0.853094 5.64084 3.28087 
264 1 1 0.146914 5.75108 4.11861 
281 1 1 0.0216381 6.63328 3.27253 
283 1 1 0.726435 6.69359 4.12138 
285 1 1 1.49468 6.40902 3.25164 
269 1 1 3.3327 4.9668 3.1774 
268 1 1 1.75767 5.61265 3.94773 
272 1 1 3.00518 5.67692 4.0233 
389 1 1 3.29056 6.46329 4.80848 
369 1 1 3.24704 4.91755 4.8984 
366 1 1 2.43425 5.68212 4.87326 
270 1 1 4.04831 5.6165 3.16756 
370 1 1 4.06852 5.52755 4.79769 
276 1 1 4.95533 5.43524 3.86969 
373 1 1 4.85948 4.83839 4.79092 
291 1 1 3.92905 6.45157 3.9952 
274 1 1 5.7471 5.62603 3.27696 
280 1 1 6.61047 5.58129 4.0119 
278 1 1 7.44272 5.75369 3.26218 
277 1 1 6.47323 4.84183 3.22475 
279 1 1 7.29975 4.66047 4.00718 
299 1 1 7.43922 6.36746 4.31248 
203 1 1 0.873439 8.00417 4.09824 
282 1 1 0.734654 7.29653 2.9718 
284 1 1 7.93224 7.34212 4.19774 
287 1 1 2.38623 6.60739 4.04226 
207 1 1 2.48329 0.137658 4.05846 
288 1 1 1.66853 7.36104 4.10683 
292 1 1 3.10384 7.29304 4.16495 
386 1 1 2.21324 7.51707 4.96934 
305 1 1 1.41211 0.200361 4.92004 
211 1 1 4.05426 0.0229781 3.89443 
296 1 1 5.00655 7.19065 4.07372 
213 1 1 4.91366 8.02285 3.28444 
294 1 1 5.69479 7.13947 3.30868 
215 1 1 5.68378 -0.00315008 4.07864 
295 1 1 5.60176 6.40084 3.99643 
397 1 1 6.42303 6.45524 4.67217 
300 1 1 6.48539 7.2769 4.09767 
298 1 1 7.403 7.39716 3.25429 
398 1 1 7.17487 7.33324 4.98366 
323 1 1 0.722332 1.71611 5.78313 
308 1 1 1.55182 1.13139 5.8211 
304 1 1 0.00710993 0.987641 5.63487 
401 1 1 7.90395 0.407306 6.47623 
421 1 1 0.0247411 1.62291 6.56762 
309 1 1 3.26022 0.134575 4.87152 
312 1 1 3.27629 0.947504 5.86322 
409 1 1 3.24468 0.15009 6.61312 
316 1 1 4.84363 0.737097 5.56699 
433 1 1 4.92263 1.6358 6.39132 
410 1 1 4.13684 0.688791 6.65233 
413 1 1 4.85101 7.86865 6.43886 
333 1 1 4.82362 1.52052 4.83153 
314 1 1 5.68603 0.631214 4.95351 
313 1 1 4.83743 0.0384335 4.65263 
414 1 1 5.33723 0.722771 6.46309 
320 1 1 6.39219 0.721673 5.9205 
339 1 1 7.2322 1.59976 5.84279 
417 1 1 6.31478 8.05225 6.55235 
322 1 1 0.784081 2.34166 4.88851 
324 1 1 7.87296 2.45808 5.70283 
445 1 1 1.63224 3.24542 6.61018 
341 1 1 8.00018 3.15465 4.91143 
343 1 1 0.691193 3.11502 5.64911 
422 1 1 0.525353 2.50653 6.44022 
329 1 1 3.33721 1.57309 4.90238 
328 1 1 1.56437 2.42633 5.82391 
326 1 1 2.62814 2.40923 4.85959 
327 1 1 2.4924 1.57623 5.81997 
331 1 1 4.15187 1.4604 5.70651 
332 1 1 3.42729 2.32951 5.73407 
430 1 1 4.14069 2.31561 6.43964 
351 1 1 4.20126 3.16542 5.69862 
334 1 1 5.67578 2.51975 4.81288 
353 1 1 4.86071 3.20843 4.85971 
336 1 1 4.88565 2.34433 5.57802 
335 1 1 5.74131 1.6149 5.63752 
340 1 1 6.47628 2.43513 5.65208 
338 1 1 7.23552 2.26053 4.968 
359 1 1 7.00531 3.27922 5.66234 
363 1 1 0.892826 4.82393 5.70016 
442 1 1 0.843704 3.99695 6.4963 
365 1 1 1.71018 4.74459 4.85739 
347 1 1 2.70989 3.19248 5.67959 
348 1 1 1.57744 3.8411 5.64582 
346 1 1 2.39279 3.94551 4.98365 
352 1 1 3.38692 3.98782 5.58924 
469 1 1 3.4154 4.73942 6.34041 
450 1 1 4.1857 3.96415 6.49948 
355 1 1 5.69015 3.15673 5.75494 
356 1 1 4.98253 3.9452 5.73242 
377 1 1 6.41848 4.84328 4.85118 
454 1 1 5.57398 4.10771 6.46316 
361 1 1 0.00535812 4.85698 4.75938 
461 1 1 0.224753 4.86934 6.51853 
360 1 1 6.20011 4.02485 5.69913 
344 1 1 8.06984 4.14301 5.56753 
379 1 1 7.26843 3.95992 4.89242 
362 1 1 0.913049 5.47562 4.86175 
367 1 1 2.34037 4.80982 5.59736 
368 1 1 1.64698 5.62805 5.65345 
465 1 1 1.73051 4.63817 6.46902 
466 1 1 2.36977 5.71244 6.3519 
393 1 1 4.85879 6.33283 4.642 
372 1 1 3.30922 5.54537 5.70867 
371 1 1 4.29136 4.7379 5.62159 
493 1 1 4.82367 6.51102 6.38702 
391 1 1 3.91932 6.50574 5.69022 
376 1 1 4.77832 5.74012 5.61318 
375 1 1 5.52175 4.97143 5.64222 
374 1 1 5.57365 5.64983 4.71942 
380 1 1 6.28116 5.71799 5.44546 
395 1 1 5.66107 6.49246 5.65337 
378 1 1 7.31444 5.57023 4.90317 
364 1 1 7.93106 5.42573 5.68074 
478 1 1 7.12864 4.78172 5.54108 
499 1 1 7.31476 5.74697 6.45308 
385 1 1 1.60884 6.34539 4.86499 
381 1 1 0.0816871 6.46418 5.00419 
301 1 1 0.136513 0.0879561 4.89773 
303 1 1 0.721154 8.06523 5.97313 
383 1 1 0.823603 6.26962 5.73804 
382 1 1 0.752278 7.43815 5.15735 
388 1 1 1.61068 7.07621 5.74614 
384 1 1 0.169079 7.11443 5.91969 
485 1 1 1.65074 6.32244 6.60295 
387 1 1 2.40643 6.39433 5.62765 
307 1 1 2.50406 0.120716 5.72917 
392 1 1 3.06695 7.29855 5.61179 
390 1 1 3.98042 7.3198 4.94239 
311 1 1 4.01186 7.89021 5.74743 
396 1 1 4.93059 7.15374 5.4515 
490 1 1 3.98055 7.27824 6.54689 
317 1 1 6.41129 8.04087 4.92911 
315 1 1 5.69561 7.94843 5.63539 
394 1 1 5.78578 7.25963 4.83487 
497 1 1 6.4492 6.36989 6.44883 
399 1 1 7.19382 6.54143 5.659 
319 1 1 7.22747 0.0662518 5.68253 
400 1 1 6.49666 7.26332 5.71342 
402 1 1 0.789739 0.884754 6.64896 
404 1 1 0.00195694 0.957168 7.3078 
406 1 1 2.37776 0.884456 6.46011 
408 1 1 1.56007 0.913282 7.44879 
407 1 1 2.38952 8.00952 7.34887 
10 1 1 4.02848 0.80685 0.0116716 
412 1 1 3.26992 0.792019 7.35448 
431 1 1 4.20363 1.48746 7.33038 
14 1 1 5.63828 0.762658 0.125283 
416 1 1 4.82316 0.741678 7.47199 
415 1 1 5.5455 7.88202 7.35933 
420 1 1 6.16588 0.63512 7.31814 
435 1 1 5.51232 1.52349 7.36666 
418 1 1 6.9832 0.909347 6.76608 
37 1 1 6.31327 1.66888 8.01982 
439 1 1 7.19991 1.72439 7.32826 
22 1 1 0.76775 2.4863 0.015642 
41 1 1 7.99726 3.31561 8.01681 
441 1 1 7.91201 3.24254 6.26582 
423 1 1 0.770644 1.83451 7.27197 
428 1 1 1.7287 2.64174 7.44467 
443 1 1 0.74953 3.22767 7.2509 
25 1 1 1.78138 1.70662 8.0054 
26 1 1 2.56275 2.35908 7.99162 
425 1 1 1.52354 1.7759 6.66226 
429 1 1 3.31181 1.54613 6.56799 
427 1 1 2.52913 1.45239 7.25735 
426 1 1 2.56413 2.48475 6.48873 
449 1 1 3.36845 3.42418 6.49845 
33 1 1 4.81542 1.6234 0.135158 
432 1 1 3.26143 2.40807 7.29565 
436 1 1 4.97336 2.37621 7.32625 
451 1 1 4.13592 3.0945 7.29175 
457 1 1 6.41164 3.15862 6.45743 
453 1 1 4.90155 3.20829 6.50165 
34 1 1 5.60083 2.49519 0.0918874 
434 1 1 5.60782 2.45466 6.53178 
440 1 1 6.4118 2.4536 7.40629 
437 1 1 6.38074 1.69421 6.55358 
424 1 1 7.96794 2.48692 7.3286 
438 1 1 7.3086 2.39841 6.58313 
459 1 1 7.16167 3.25861 7.19777 
42 1 1 0.726441 3.94469 0.100604 
448 1 1 1.61057 4.04467 7.33045 
447 1 1 2.61616 3.37298 7.23391 
49 1 1 3.34581 3.2604 7.96285 
446 1 1 2.48483 3.98139 6.4141 
452 1 1 3.37703 4.13316 7.30489 
467 1 1 2.54012 4.68522 7.3115 
456 1 1 4.81188 4.05698 7.2147 
471 1 1 4.10867 4.95476 7.20586 
473 1 1 4.8804 4.91836 6.35692 
57 1 1 6.46897 3.25265 0.106116 
455 1 1 5.78331 3.3339 7.24021 
460 1 1 6.43365 4.06467 7.177 
475 1 1 5.76682 4.85929 7.22851 
77 1 1 6.48572 4.81572 8.02308 
458 1 1 7.20283 3.9749 6.3359 
444 1 1 7.97418 3.95821 7.07633 
479 1 1 7.32877 4.91504 7.21328 
62 1 1 0.69129 5.6307 0.0674284 
61 1 1 8.07077 4.82225 8.06853 
463 1 1 0.846055 4.72775 7.45618 
462 1 1 0.942717 5.61146 6.52963 
468 1 1 1.66144 5.38978 7.24049 
483 1 1 0.831255 6.31248 7.39647 
489 1 1 3.2007 6.49981 6.53753 
472 1 1 3.07295 5.66716 7.20183 
487 1 1 2.38921 6.57624 7.19043 
70 1 1 4.01937 5.64306 0.110207 
470 1 1 3.95949 5.59242 6.51474 
476 1 1 4.91637 5.53657 7.2694 
74 1 1 5.61371 5.54214 0.0883058 
477 1 1 6.50761 5.07686 6.22086 
474 1 1 5.53772 5.72161 6.36255 
495 1 1 5.66804 6.24891 7.43143 
480 1 1 6.49289 5.5193 7.26393 
81 1 1 8.07315 6.49813 0.140562 
464 1 1 0.0320814 5.58648 7.37198 
78 1 1 7.03799 6.5065 7.25785 
403 1 1 0.666167 8.04584 7.2719 
482 1 1 0.885899 7.02141 6.62708 
488 1 1 1.62125 7.47354 7.20611 
484 1 1 8.02307 7.17586 7.03553 
86 1 1 2.40659 7.32842 0.086467 
405 1 1 1.69282 0.0167077 6.41007 
486 1 1 2.4263 7.36916 6.37654 
492 1 1 3.14111 7.32048 7.18156 
90 1 1 3.98196 7.27413 0.00598514 
13 1 1 4.82813 8.04969 0.0297576 
411 1 1 3.92137 8.07315 7.42217 
491 1 1 3.8443 6.40262 7.30754 
93 1 1 4.70983 6.35158 0.185024 
496 1 1 4.84081 6.93671 7.3038 
94 1 1 5.67516 7.0641 0.0487925 
494 1 1 5.6488 7.11793 6.5012 
500 1 1 6.39911 7.27329 7.28309 
481 1 1 0.15276 6.18714 6.49899 
419 1 1 7.15164 7.95439 7.24887 
498 1 1 7.14668 7.20156 6.45618 
