ITEM: TIMESTEP
34000
ITEM: NUMBER OF ATOMS
500
ITEM: BOX BOUNDS pp pp pp
0 8.07388
0 8.07388
0 8.07388
ITEM: ATOMS id type mass x y z 
2 1 1 0.836915 0.902172 0.0277384 
23 1 1 0.674022 1.6595 1.03881 
102 1 1 0.689512 0.723091 1.59808 
25 1 1 1.69254 1.52602 0.123176 
8 1 1 1.61169 0.669109 0.84858 
106 1 1 2.44356 0.815119 1.80095 
7 1 1 2.44165 8.06232 0.861184 
9 1 1 3.29568 0.0842519 0.088966 
12 1 1 3.38325 0.762273 1.07468 
31 1 1 4.08871 1.56784 0.72509 
16 1 1 4.91095 0.83543 0.872979 
14 1 1 5.89383 0.844609 0.0445252 
15 1 1 5.75341 0.0762553 0.642336 
113 1 1 4.953 8.06464 1.70317 
114 1 1 5.76503 0.732907 1.67554 
4 1 1 7.85313 0.818599 0.949801 
20 1 1 6.66516 0.878593 0.730679 
18 1 1 7.18693 0.721578 7.92889 
28 1 1 1.68989 2.37262 0.96217 
43 1 1 0.801799 3.36419 0.80226 
24 1 1 0.0510315 2.54478 0.759283 
122 1 1 0.779916 2.60246 1.55076 
22 1 1 0.862841 2.38793 0.0529953 
27 1 1 2.48818 1.5134 0.772285 
26 1 1 2.4463 2.45631 0.26849 
125 1 1 1.58278 1.49491 1.48239 
126 1 1 2.51507 2.34924 1.49674 
45 1 1 1.59226 3.17418 -0.00271469 
32 1 1 3.3753 2.35769 0.767846 
51 1 1 4.20255 3.07656 0.698536 
30 1 1 4.03726 2.27359 7.89027 
36 1 1 4.89482 2.19377 0.742582 
33 1 1 4.79129 1.55597 8.02281 
53 1 1 4.88767 2.90063 0.018612 
35 1 1 5.75961 1.49887 0.940514 
40 1 1 6.48467 2.52315 0.859547 
37 1 1 6.562 1.53551 7.80204 
55 1 1 5.44796 3.17322 0.893397 
34 1 1 5.81278 2.29795 0.0758784 
39 1 1 7.34787 1.74944 0.860006 
38 1 1 7.20763 2.44168 8.0354 
59 1 1 7.25028 3.27361 0.73843 
41 1 1 7.95848 3.12707 8.02984 
48 1 1 1.52778 4.1121 0.811494 
44 1 1 8.07614 4.01731 0.779016 
47 1 1 2.42476 3.14278 0.973626 
46 1 1 2.44895 3.86732 0.177409 
145 1 1 1.54797 3.34591 1.52665 
169 1 1 3.28837 4.86102 1.65552 
52 1 1 3.35194 3.91875 0.799621 
56 1 1 4.67222 3.95314 0.781742 
54 1 1 5.50804 3.84098 0.12871 
57 1 1 6.31868 3.13664 8.10036 
73 1 1 4.91001 4.82816 7.95747 
75 1 1 5.54175 4.75207 0.751561 
77 1 1 6.34848 4.7477 8.04871 
60 1 1 6.39381 3.88556 0.80286 
161 1 1 7.27279 4.85496 0.725305 
165 1 1 1.6001 4.81317 1.68823 
63 1 1 0.876102 4.887 0.858398 
162 1 1 0.963588 5.60725 1.66641 
62 1 1 0.940706 5.46209 8.00331 
68 1 1 1.70227 5.67958 0.705568 
67 1 1 2.34307 4.86487 0.899761 
166 1 1 2.46173 5.77153 1.64596 
66 1 1 2.60393 5.61972 0.174642 
72 1 1 3.39141 5.5447 0.902402 
71 1 1 3.99773 4.80225 0.846381 
70 1 1 3.89976 5.66696 7.95535 
76 1 1 4.80625 5.60986 0.93171 
91 1 1 4.0547 6.44846 0.879508 
95 1 1 5.50114 6.60931 0.90751 
173 1 1 4.73977 4.68723 1.67752 
174 1 1 5.58515 5.77354 1.54618 
197 1 1 6.46772 6.56205 1.57845 
80 1 1 6.60791 5.72894 0.823434 
64 1 1 0.016875 5.53445 0.931164 
99 1 1 7.43435 6.44957 0.822245 
81 1 1 0.169409 6.07478 0.0727927 
83 1 1 0.718717 6.36969 0.88858 
3 1 1 0.679085 0.119019 0.741437 
182 1 1 0.817433 7.19058 1.69306 
101 1 1 7.93768 0.0689064 1.67328 
1 1 1 -0.00708572 7.87913 7.92354 
185 1 1 1.59599 6.4487 1.49217 
87 1 1 2.4107 6.47312 0.844243 
88 1 1 1.77776 7.28937 0.83746 
186 1 1 2.39468 7.2783 1.64496 
92 1 1 3.28356 7.33051 0.945251 
11 1 1 3.97499 8.03577 1.16692 
189 1 1 3.19647 6.50756 1.57358 
93 1 1 4.82909 6.34225 0.0931804 
96 1 1 4.91654 7.45553 0.824724 
17 1 1 6.79593 7.60505 7.93576 
100 1 1 6.51183 7.18249 0.792449 
117 1 1 6.55979 8.06328 1.5974 
19 1 1 7.26188 7.90535 0.741674 
84 1 1 -0.00234885 7.26119 1.00548 
198 1 1 7.23549 7.32387 1.63621 
98 1 1 7.56852 6.97599 0.0383508 
123 1 1 0.945362 1.61405 2.21487 
108 1 1 1.50404 0.787037 2.41774 
127 1 1 2.34506 1.72822 2.43346 
205 1 1 1.60614 0.0317163 3.20423 
110 1 1 4.1881 0.82636 1.72193 
112 1 1 3.29084 0.787896 2.44567 
111 1 1 4.18735 0.135758 2.4422 
116 1 1 4.93641 0.877337 2.40396 
214 1 1 5.54854 0.893407 3.3422 
121 1 1 7.9038 1.64044 1.77479 
104 1 1 -0.00139118 0.794008 2.40567 
137 1 1 6.51226 1.62846 1.58844 
120 1 1 6.42199 0.856077 2.59688 
118 1 1 7.13345 0.842208 1.7252 
139 1 1 7.19388 1.68006 2.47044 
222 1 1 0.720109 2.39523 3.06428 
143 1 1 0.828285 3.32797 2.50222 
124 1 1 0.0233955 2.54007 2.20498 
128 1 1 1.59902 2.50776 2.2386 
132 1 1 3.22179 2.43362 2.41427 
147 1 1 2.64929 3.19623 2.17272 
129 1 1 3.28063 1.71993 1.6735 
130 1 1 4.1156 2.31648 1.75146 
149 1 1 3.42891 3.07394 1.51666 
131 1 1 3.90392 1.71466 2.48461 
151 1 1 3.98843 3.13368 2.47515 
133 1 1 4.91762 1.64251 1.53473 
136 1 1 4.89963 2.35964 2.50146 
134 1 1 5.69388 2.2834 1.62202 
135 1 1 5.7345 1.5826 2.44827 
234 1 1 5.75015 2.3953 3.34439 
237 1 1 6.63408 1.76088 3.30472 
138 1 1 7.21499 2.46649 1.61939 
157 1 1 6.48202 3.21471 1.60987 
141 1 1 8.05472 3.32227 1.52648 
140 1 1 6.38016 2.40202 2.45004 
159 1 1 7.24286 3.2759 2.41277 
142 1 1 0.794599 4.02426 1.67766 
144 1 1 7.99505 4.02761 2.35749 
163 1 1 7.93223 4.75955 1.5438 
242 1 1 0.858215 4.80307 2.5707 
261 1 1 8.05026 4.69411 3.22052 
146 1 1 2.48997 4.05385 1.60054 
148 1 1 1.71716 4.06835 2.5114 
167 1 1 2.49836 4.72058 2.36155 
152 1 1 3.29681 3.96659 2.49812 
246 1 1 2.54115 3.7728 3.24136 
153 1 1 4.79669 3.04797 1.72544 
150 1 1 4.05256 3.91838 1.70936 
171 1 1 4.08373 4.80325 2.46375 
154 1 1 5.61428 4.06114 1.63001 
156 1 1 4.85678 3.8846 2.32704 
155 1 1 5.63297 3.14952 2.47153 
273 1 1 4.8493 4.90117 3.20225 
254 1 1 5.65551 3.96942 3.44008 
158 1 1 7.14186 4.10142 1.50443 
177 1 1 6.38397 4.83474 1.48683 
160 1 1 6.48547 3.96132 2.42972 
179 1 1 7.19355 4.82482 2.31415 
168 1 1 1.68042 5.57734 2.4522 
262 1 1 0.91982 5.6997 3.31002 
285 1 1 1.60241 6.40473 3.31985 
164 1 1 8.05785 5.60938 2.39643 
281 1 1 8.08353 6.74198 3.12661 
172 1 1 3.21054 5.5334 2.55929 
266 1 1 2.36537 5.65499 3.28669 
187 1 1 2.55029 6.55085 2.41755 
269 1 1 3.4384 4.80673 3.21843 
170 1 1 3.96402 5.6069 1.82367 
193 1 1 4.86816 6.39334 1.84109 
191 1 1 3.81619 6.35828 2.50664 
270 1 1 4.14275 5.56406 3.18913 
176 1 1 4.85431 5.559 2.45331 
175 1 1 5.64105 4.68479 2.41819 
180 1 1 6.41478 5.60653 2.33797 
195 1 1 5.69686 6.41035 2.50753 
277 1 1 6.47844 4.70156 3.26639 
178 1 1 7.2713 5.73139 1.66455 
278 1 1 7.32953 5.6518 3.16768 
183 1 1 0.898929 6.42464 2.54341 
103 1 1 0.699201 -0.0321353 2.38673 
184 1 1 7.96544 7.29877 2.32025 
105 1 1 1.71604 0.0203566 1.59631 
109 1 1 3.16671 8.04839 1.72629 
107 1 1 2.33319 8.01823 2.44811 
188 1 1 1.66395 7.19932 2.54691 
192 1 1 3.22925 7.21733 2.58812 
190 1 1 4.07838 7.20202 1.80728 
196 1 1 5.033 7.29661 2.45052 
115 1 1 5.67925 0.0305062 2.68014 
213 1 1 4.90312 0.170336 3.54268 
194 1 1 5.75586 7.43503 1.57499 
200 1 1 6.58703 7.1782 2.54568 
294 1 1 5.67243 7.15004 3.26832 
181 1 1 0.0194853 6.30824 1.71504 
119 1 1 7.15563 8.02902 2.41591 
199 1 1 7.3626 6.42518 2.52991 
202 1 1 0.753928 0.762354 3.25095 
208 1 1 1.57195 0.904437 3.86843 
223 1 1 0.704656 1.62339 3.96318 
225 1 1 1.62852 1.72902 3.12002 
203 1 1 0.835071 0.00787084 4.07998 
302 1 1 0.791612 0.793685 4.68193 
325 1 1 1.48563 1.65771 4.61 
206 1 1 2.37973 0.867481 2.98863 
229 1 1 3.033 1.75667 3.26901 
212 1 1 3.04613 0.760464 3.95621 
227 1 1 2.54632 1.8218 4.10106 
210 1 1 4.09958 0.963968 3.37456 
231 1 1 4.12709 1.61715 4.25054 
313 1 1 4.77836 8.09437 4.79732 
310 1 1 4.08943 0.911329 5.00783 
216 1 1 4.89169 0.940543 4.23244 
215 1 1 5.73874 8.00155 3.9954 
314 1 1 5.82807 0.764214 4.85226 
204 1 1 7.96198 0.822735 3.99908 
220 1 1 6.32769 0.883231 4.03728 
218 1 1 7.20081 0.825898 3.31836 
239 1 1 7.2755 1.69732 4.07369 
221 1 1 0.102424 1.62586 3.12461 
318 1 1 7.13866 0.840606 4.832 
321 1 1 8.04447 1.54642 4.78214 
224 1 1 8.13805 2.42881 3.9114 
245 1 1 1.55072 3.28996 3.21117 
228 1 1 1.64823 2.59847 4.01443 
226 1 1 2.33276 2.54695 2.99407 
232 1 1 3.40103 2.39965 4.05032 
249 1 1 3.17026 3.0217 3.22999 
230 1 1 4.19659 2.43718 3.20409 
251 1 1 4.11227 3.38901 3.96841 
236 1 1 4.89107 2.39879 4.00657 
253 1 1 5.00859 3.12316 3.27938 
233 1 1 4.89288 1.60713 3.3844 
235 1 1 5.664 1.64465 4.12826 
255 1 1 5.47838 3.20118 4.11478 
257 1 1 6.38975 3.28629 3.31693 
333 1 1 4.84004 1.58558 4.94737 
337 1 1 6.45337 1.63048 4.82563 
240 1 1 6.61498 2.54632 4.13774 
238 1 1 7.26414 2.53407 3.09637 
338 1 1 7.39182 2.50216 4.9748 
244 1 1 0.836028 3.99245 3.24126 
243 1 1 0.786105 3.3072 3.97158 
263 1 1 0.874877 4.73056 3.95653 
358 1 1 0.0367462 3.91691 4.04358 
265 1 1 1.72061 4.89077 3.32033 
247 1 1 2.588 3.10107 4.02607 
248 1 1 1.66095 4.03914 4.16855 
252 1 1 3.08541 4.09595 4.02526 
267 1 1 2.40371 4.96622 4.2301 
250 1 1 4.25803 3.93821 3.07489 
350 1 1 4.03725 4.11872 4.94065 
256 1 1 4.79589 4.10478 4.05025 
271 1 1 4.04246 4.84503 4.08698 
353 1 1 4.74359 3.27195 4.92418 
369 1 1 3.30319 4.82567 4.85653 
354 1 1 5.595 3.98028 4.96557 
377 1 1 6.24734 4.79161 4.8543 
258 1 1 7.22978 3.91648 3.29843 
357 1 1 6.3707 3.32901 5.04794 
241 1 1 0.0789658 3.23093 3.18381 
260 1 1 6.48147 4.03839 4.09594 
259 1 1 7.36212 3.23967 4.18448 
279 1 1 7.29467 4.87127 4.09156 
362 1 1 0.738992 5.5508 4.96816 
283 1 1 0.619745 6.42306 4.07051 
268 1 1 1.63014 5.76771 4.1758 
287 1 1 2.39453 6.5311 4.06932 
373 1 1 4.84846 4.82692 4.83134 
272 1 1 3.15428 5.71033 4.0132 
276 1 1 4.88061 5.56719 4.11281 
289 1 1 3.34168 6.67687 3.41122 
293 1 1 4.7937 6.37973 3.13485 
275 1 1 5.6236 4.73504 4.01374 
274 1 1 5.66104 5.50233 3.25904 
280 1 1 6.47608 5.60775 4.02781 
297 1 1 6.51309 6.30498 3.25239 
374 1 1 5.62458 5.66582 4.7754 
397 1 1 6.44803 6.44374 4.72746 
264 1 1 0.0153346 5.45745 4.05215 
299 1 1 7.28968 6.32016 3.99987 
282 1 1 0.896798 7.27413 3.29525 
201 1 1 0.0880744 8.03921 3.27068 
284 1 1 8.06815 7.23957 4.14331 
381 1 1 7.94123 6.41633 4.78761 
207 1 1 2.40339 0.0229128 4.20375 
286 1 1 2.48103 7.28543 3.31605 
288 1 1 1.63275 7.34243 4.09418 
209 1 1 3.28943 0.0205706 3.26103 
211 1 1 3.94885 0.343393 4.17462 
291 1 1 4.13993 6.36445 3.95183 
292 1 1 3.18288 7.44155 4.07696 
290 1 1 4.06869 7.36267 3.44787 
296 1 1 4.93767 7.31135 4.01381 
390 1 1 3.93889 7.31902 4.81887 
217 1 1 6.48789 7.91676 3.26246 
295 1 1 5.63652 6.36291 3.92822 
300 1 1 6.5036 7.30083 4.07768 
394 1 1 5.55153 7.11979 4.75326 
301 1 1 7.95047 0.0595247 4.8212 
219 1 1 7.21706 8.06375 3.97625 
298 1 1 7.22776 7.25573 3.33158 
398 1 1 7.27486 7.34715 4.80106 
323 1 1 0.782865 1.63738 5.49529 
308 1 1 1.63449 0.904033 5.51914 
425 1 1 1.43398 1.67021 6.42939 
303 1 1 0.695908 0.10839 5.54876 
329 1 1 3.28447 1.45892 4.7696 
305 1 1 1.50444 0.0225027 4.86879 
306 1 1 2.40544 0.92931 4.8561 
307 1 1 2.34154 8.01196 5.63806 
312 1 1 3.2377 0.733189 5.8045 
311 1 1 4.22912 8.07945 5.75084 
331 1 1 3.96756 1.68435 5.64366 
409 1 1 3.19342 7.88198 6.66205 
413 1 1 4.80095 0.0363313 6.64656 
433 1 1 4.70407 1.55426 6.47081 
316 1 1 4.86006 0.912285 5.67996 
335 1 1 5.63303 1.62629 5.60443 
315 1 1 5.68385 7.99927 5.63547 
304 1 1 8.04318 0.909026 5.63993 
320 1 1 6.4099 0.85722 5.80371 
437 1 1 6.45402 1.70642 6.50496 
341 1 1 8.05448 3.32807 5.01345 
322 1 1 0.789977 2.47934 4.82383 
328 1 1 1.46461 2.41652 5.61474 
324 1 1 0.020112 2.44185 5.76761 
343 1 1 0.769011 3.27606 5.74695 
345 1 1 1.5932 3.31054 4.96453 
327 1 1 2.47219 1.64672 5.67486 
326 1 1 2.44487 2.53152 4.92007 
429 1 1 3.04956 1.62019 6.54683 
445 1 1 1.66148 3.17587 6.54919 
426 1 1 2.30046 2.37243 6.44678 
330 1 1 4.05919 2.49631 4.90997 
332 1 1 3.31312 2.54104 5.59049 
430 1 1 3.85499 2.30443 6.45336 
334 1 1 5.5204 2.43917 4.87544 
336 1 1 4.81477 2.42462 5.6546 
434 1 1 5.65123 2.48639 6.53381 
457 1 1 6.29091 3.27385 6.48214 
453 1 1 4.80443 3.12012 6.53441 
339 1 1 7.16931 1.61925 5.57885 
340 1 1 6.46121 2.37088 5.59875 
342 1 1 0.874012 4.12495 4.83 
347 1 1 2.40163 3.34797 5.67368 
348 1 1 1.50659 4.10817 5.73235 
365 1 1 1.5693 4.84759 4.85166 
465 1 1 1.77252 4.97087 6.41906 
346 1 1 2.39648 4.05106 4.98176 
446 1 1 2.34664 4.14977 6.41036 
349 1 1 3.39213 3.25925 4.84389 
351 1 1 4.01603 3.27554 5.70105 
352 1 1 3.30644 4.17461 5.69536 
371 1 1 4.04167 5.05099 5.61634 
356 1 1 4.77173 4.06439 5.85915 
355 1 1 5.48235 3.28443 5.79108 
454 1 1 5.57887 4.07847 6.54858 
379 1 1 7.11533 4.03357 4.94819 
359 1 1 7.26991 3.34833 5.69126 
344 1 1 7.97575 4.1945 5.76899 
360 1 1 6.3792 3.9885 5.82021 
458 1 1 7.22496 4.07278 6.56994 
361 1 1 8.03661 4.8555 4.85334 
363 1 1 0.765396 4.85806 5.79308 
383 1 1 0.744492 6.44575 5.56302 
461 1 1 8.04521 4.77298 6.58415 
367 1 1 2.51934 4.87141 5.70852 
368 1 1 1.61478 5.6783 5.61943 
366 1 1 2.46054 5.74961 4.90858 
385 1 1 1.64028 6.51326 4.90042 
387 1 1 2.53696 6.60969 5.60565 
370 1 1 3.92244 5.78742 4.94307 
372 1 1 3.22921 5.80773 5.73017 
376 1 1 4.62935 5.82964 5.70724 
375 1 1 5.5077 4.97213 5.67225 
380 1 1 6.29399 5.67222 5.57074 
477 1 1 6.32298 5.04527 6.41421 
378 1 1 7.18163 5.70301 4.82931 
478 1 1 7.16448 4.87513 5.75939 
364 1 1 8.03953 5.69268 5.69711 
382 1 1 0.690206 7.35444 4.84468 
384 1 1 8.09754 7.16862 5.59376 
482 1 1 0.88711 7.3076 6.43598 
389 1 1 3.26349 6.55333 4.72144 
388 1 1 1.44408 7.33484 5.48687 
386 1 1 2.39093 7.269 4.77409 
392 1 1 3.32284 7.51913 5.64763 
486 1 1 2.41457 7.2851 6.34434 
309 1 1 3.11851 0.105357 4.93032 
393 1 1 4.69791 6.5088 4.78226 
391 1 1 3.87662 6.67367 5.70793 
493 1 1 4.87091 6.46626 6.51592 
490 1 1 4.12233 7.3238 6.46711 
395 1 1 5.6381 6.46092 5.61145 
396 1 1 4.84156 7.33834 5.57282 
400 1 1 6.58614 7.12494 5.57885 
317 1 1 6.50004 7.98532 4.84055 
319 1 1 7.38864 7.9747 5.61932 
399 1 1 7.24397 6.4037 5.58357 
405 1 1 1.57103 0.138179 6.23223 
402 1 1 0.860164 0.849871 6.46799 
408 1 1 1.4887 0.747501 7.28688 
6 1 1 2.48661 0.768575 0.0494006 
406 1 1 2.30311 0.881333 6.46492 
427 1 1 2.28527 1.55472 7.24444 
407 1 1 2.2507 0.014119 7.22882 
412 1 1 3.10478 0.817089 7.2223 
10 1 1 4.16376 0.628714 0.169836 
13 1 1 5.03485 0.122783 7.92269 
410 1 1 3.98265 0.813964 6.36898 
416 1 1 4.98494 0.832689 7.24157 
411 1 1 4.06623 0.142111 7.27272 
414 1 1 5.65697 0.76087 6.43343 
415 1 1 5.66853 8.00416 7.19934 
420 1 1 6.44041 0.753869 7.06242 
417 1 1 6.5472 8.02211 6.31504 
421 1 1 0.0868982 1.52144 6.43444 
404 1 1 0.154993 0.785165 7.27491 
418 1 1 7.27453 1.00659 6.41765 
419 1 1 7.26891 0.0675398 7.10072 
21 1 1 0.0585333 1.54133 0.0249787 
422 1 1 0.790797 2.48218 6.39634 
423 1 1 0.817004 1.74915 7.30301 
428 1 1 1.65228 2.35263 7.22939 
432 1 1 3.12549 2.37357 7.21068 
29 1 1 3.1578 1.65471 7.93079 
449 1 1 3.22188 3.15217 6.39179 
431 1 1 4.02686 1.23482 7.38533 
451 1 1 4.00451 3.10925 7.28127 
435 1 1 5.61474 1.64644 7.28998 
436 1 1 4.78057 2.33408 7.10242 
440 1 1 6.56036 2.4976 7.2959 
438 1 1 7.33643 2.43429 6.33195 
439 1 1 7.48135 1.62134 7.19097 
424 1 1 0.0262983 2.51843 7.17725 
443 1 1 0.838503 3.19835 7.25948 
42 1 1 0.915126 3.97276 7.97335 
442 1 1 0.872948 4.03416 6.56516 
463 1 1 0.815299 4.98418 6.94492 
49 1 1 3.1783 3.04246 8.04117 
448 1 1 1.71667 3.97717 7.29448 
447 1 1 2.41189 3.07465 7.38584 
452 1 1 3.0083 4.22304 7.3472 
50 1 1 4.05568 3.77933 8.1048 
450 1 1 3.90176 4.11271 6.58326 
456 1 1 4.802 3.91084 7.33347 
471 1 1 3.84731 4.83259 7.36268 
455 1 1 5.56907 3.17577 7.31675 
475 1 1 5.66431 4.87066 7.20938 
460 1 1 6.41672 3.9222 7.25391 
473 1 1 4.83868 4.9287 6.44756 
58 1 1 7.1291 3.98075 8.12297 
441 1 1 8.04231 3.36357 6.48331 
459 1 1 7.25751 3.25727 7.3818 
444 1 1 0.0941582 4.04948 7.37976 
479 1 1 7.23623 4.77569 7.24526 
462 1 1 0.895154 5.87512 6.47604 
65 1 1 1.76021 4.71652 8.05366 
466 1 1 2.42142 5.77602 6.26146 
485 1 1 1.69473 6.58735 6.10732 
468 1 1 1.61583 5.7662 7.39337 
467 1 1 2.35428 5.09234 7.26515 
469 1 1 3.154 4.91717 6.50878 
470 1 1 3.89723 5.72168 6.43192 
89 1 1 3.29752 6.49369 0.204072 
69 1 1 3.23373 4.67836 0.169311 
472 1 1 3.16848 5.64739 7.31966 
476 1 1 4.79392 5.69842 7.24459 
74 1 1 5.64987 5.61256 0.020746 
474 1 1 5.53163 5.75041 6.44475 
495 1 1 5.79203 6.44416 7.30888 
480 1 1 6.45294 5.68587 7.23076 
61 1 1 0.0485239 4.84402 0.063929 
464 1 1 0.0337923 5.75589 7.11124 
79 1 1 7.307 5.60233 7.8718 
499 1 1 7.27484 5.61541 6.60771 
78 1 1 7.26092 6.48527 7.21119 
85 1 1 1.53827 6.42623 0.173028 
483 1 1 0.672985 6.50184 7.27546 
5 1 1 1.46282 7.96082 0.056454 
82 1 1 0.600068 7.10665 0.181666 
403 1 1 0.876557 8.03629 7.22663 
488 1 1 1.57687 7.25368 7.4007 
401 1 1 -0.0100866 8.13509 6.47223 
489 1 1 2.99958 6.62071 6.63031 
487 1 1 2.44994 6.39775 7.59131 
86 1 1 2.50271 7.30703 0.152016 
492 1 1 3.28125 7.35455 7.54726 
491 1 1 3.97105 6.60775 7.37023 
90 1 1 4.07514 7.3602 0.141349 
496 1 1 4.91837 7.12368 7.32763 
94 1 1 5.67864 7.16124 0.0338002 
497 1 1 6.36701 6.41244 6.33179 
494 1 1 5.65922 7.27169 6.44483 
500 1 1 6.5938 7.18288 6.99432 
97 1 1 6.67544 6.4538 8.06808 
481 1 1 8.04103 6.5185 6.33182 
484 1 1 8.03348 7.2716 7.14081 
498 1 1 7.30826 7.22073 6.32556 
