ITEM: TIMESTEP
12000
ITEM: NUMBER OF ATOMS
500
ITEM: BOX BOUNDS pp pp pp
0 8.07388
0 8.07388
0 8.07388
ITEM: ATOMS id type mass x y z 
23 1 1 0.850788 1.89677 0.83963 
125 1 1 1.58652 1.6464 1.64536 
25 1 1 1.6366 1.67174 0.0390515 
8 1 1 1.42677 0.839619 0.697462 
12 1 1 3.05894 0.859363 0.811449 
129 1 1 3.16489 1.46376 1.70268 
106 1 1 2.35372 0.843823 1.59594 
6 1 1 2.37655 0.907873 7.95746 
29 1 1 3.21542 1.48521 0.0185998 
10 1 1 4.07237 0.856601 8.05957 
31 1 1 4.06119 1.56411 0.903065 
16 1 1 4.88599 0.823008 0.77552 
110 1 1 4.08756 0.811777 1.67366 
109 1 1 3.23905 0.222344 1.52982 
114 1 1 5.56564 0.687749 1.57048 
35 1 1 5.6849 1.66433 0.895976 
20 1 1 6.39307 0.588422 0.765617 
14 1 1 5.72613 0.826771 8.0705 
17 1 1 6.2209 7.96103 8.01496 
4 1 1 0.144204 0.80412 0.775666 
37 1 1 6.42678 1.60169 7.99173 
19 1 1 7.16574 8.02562 0.764886 
39 1 1 7.19812 1.73457 0.641441 
24 1 1 0.0841617 2.55298 0.796778 
22 1 1 0.844467 2.4957 8.07269 
28 1 1 1.65758 2.50253 0.713281 
43 1 1 0.878303 3.14372 0.777707 
41 1 1 7.98871 3.24147 7.95846 
45 1 1 1.69957 3.14291 7.96085 
27 1 1 2.49495 1.7578 0.936836 
32 1 1 3.29125 2.39417 0.698718 
145 1 1 1.6111 3.25678 1.50436 
36 1 1 4.85132 2.3582 0.902945 
130 1 1 4.21056 2.33004 1.69641 
49 1 1 3.33321 3.13266 7.99418 
30 1 1 4.09969 2.30749 0.0625818 
51 1 1 3.9976 3.11161 0.87276 
34 1 1 5.59856 2.54768 7.99582 
40 1 1 6.51001 2.45837 0.760673 
55 1 1 5.54061 3.04938 0.800833 
59 1 1 7.16624 3.36802 0.946463 
38 1 1 7.17518 2.56245 8.02998 
157 1 1 6.48183 3.12136 1.84097 
57 1 1 6.44877 3.31862 0.183389 
44 1 1 8.04471 3.91683 0.903478 
63 1 1 0.856061 4.88729 1.12215 
48 1 1 1.5278 4.08008 0.750633 
47 1 1 2.45327 3.14019 0.838186 
52 1 1 3.23717 3.83354 0.674681 
65 1 1 1.67845 4.77915 0.0983395 
149 1 1 3.23054 3.12729 1.57097 
53 1 1 4.63966 3.17897 7.99553 
50 1 1 3.92963 3.97487 7.8834 
56 1 1 4.6496 3.91191 0.71919 
150 1 1 4.12041 4.10587 1.88341 
154 1 1 5.51515 4.08767 1.50641 
54 1 1 5.46602 3.91828 0.0597044 
60 1 1 6.31508 4.00792 0.981309 
58 1 1 7.31178 3.94999 0.118559 
161 1 1 7.11019 4.69688 0.921889 
62 1 1 0.980069 5.59117 0.278037 
68 1 1 1.65417 5.5678 0.98609 
67 1 1 2.4167 4.79289 0.880356 
72 1 1 3.29703 5.61925 0.84101 
87 1 1 2.54151 6.44692 0.797363 
169 1 1 3.23489 4.58459 1.53949 
71 1 1 3.97191 4.77438 0.715749 
69 1 1 3.10248 4.71966 0.0792669 
76 1 1 4.84203 5.6143 0.769638 
173 1 1 4.8135 4.83749 1.51862 
70 1 1 4.07411 5.55702 8.03013 
75 1 1 5.66495 4.86514 0.713025 
174 1 1 5.55087 5.64863 1.51391 
74 1 1 5.66215 5.59317 8.00554 
80 1 1 6.53959 5.72616 0.892636 
95 1 1 5.6781 6.37162 0.769777 
79 1 1 7.31491 5.87948 8.02849 
177 1 1 6.32759 4.93333 1.54901 
64 1 1 8.00044 5.30663 0.803355 
3 1 1 0.752617 8.01228 0.871286 
83 1 1 0.852982 6.69582 1.06988 
182 1 1 0.861228 7.31166 1.87459 
88 1 1 1.76034 7.26387 0.882345 
185 1 1 1.85101 6.41032 1.63638 
7 1 1 2.33234 8.07418 0.857708 
92 1 1 3.07095 7.4369 0.732491 
9 1 1 3.20921 0.125592 0.0876445 
91 1 1 4.10998 6.50617 0.880415 
11 1 1 4.05018 0.143034 0.936687 
96 1 1 4.82906 7.34558 0.922908 
13 1 1 4.92009 0.104654 8.02631 
89 1 1 3.31835 6.47505 0.0973008 
93 1 1 4.90709 6.45233 0.105883 
15 1 1 5.62131 7.9581 0.848358 
197 1 1 6.45141 6.33193 1.71638 
194 1 1 5.64505 7.12319 1.63771 
100 1 1 6.42448 7.1832 0.772427 
94 1 1 5.64133 7.21238 7.9715 
181 1 1 0.0514218 6.18844 1.6454 
99 1 1 7.35268 6.36461 0.939953 
84 1 1 7.9578 7.17072 0.785797 
198 1 1 7.18587 7.12618 1.556 
102 1 1 0.910724 0.88565 1.58022 
123 1 1 0.817498 1.63239 2.48873 
121 1 1 8.01312 1.68105 1.34416 
104 1 1 0.0960161 0.868018 2.3062 
108 1 1 1.62367 0.887929 2.35079 
112 1 1 3.36766 0.696389 2.40082 
116 1 1 4.84301 0.769911 2.34911 
133 1 1 4.90807 1.50422 1.61126 
131 1 1 4.12253 1.52156 2.29729 
111 1 1 4.17789 8.05332 2.47132 
209 1 1 3.38052 0.00171172 3.22833 
117 1 1 6.5558 8.03932 1.56944 
233 1 1 4.83865 1.56553 3.21374 
213 1 1 4.74786 7.93058 3.34661 
137 1 1 6.53568 1.48561 1.61873 
214 1 1 5.65165 0.810126 3.07171 
120 1 1 6.38326 0.649995 2.34266 
118 1 1 7.24564 0.797842 1.47857 
141 1 1 8.02495 3.16777 1.55878 
122 1 1 0.802996 2.51957 1.67777 
222 1 1 0.965956 2.44675 3.05563 
143 1 1 0.892044 3.36465 2.29102 
127 1 1 2.40077 1.74891 2.33967 
126 1 1 2.27165 2.44724 1.56238 
128 1 1 1.57608 2.45287 2.28968 
147 1 1 2.45292 3.15676 2.36967 
226 1 1 2.44993 2.42134 3.3759 
132 1 1 3.19634 2.36358 2.32856 
136 1 1 4.91263 2.19711 2.43505 
135 1 1 5.69792 1.47235 2.39515 
134 1 1 5.67917 2.24421 1.69181 
234 1 1 5.72198 2.27651 3.27523 
140 1 1 6.53609 2.40403 2.62701 
253 1 1 4.8951 3.03212 3.38717 
139 1 1 7.29979 1.55441 2.29525 
124 1 1 0.117602 2.41592 2.44301 
138 1 1 7.32141 2.3825 1.65569 
257 1 1 6.44053 3.25733 3.25827 
237 1 1 6.38799 1.54788 3.33308 
142 1 1 0.799594 4.01816 1.4503 
245 1 1 1.71133 3.31766 3.11268 
242 1 1 0.893353 4.9383 2.35168 
144 1 1 0.175423 4.09729 2.24842 
249 1 1 3.14304 3.05317 3.19283 
148 1 1 1.67697 4.03089 2.36557 
146 1 1 2.47457 3.90965 1.60594 
165 1 1 1.82673 4.80634 1.71869 
167 1 1 2.32479 4.8578 2.64342 
153 1 1 4.82394 3.16857 1.74486 
151 1 1 4.00293 3.09881 2.45735 
152 1 1 3.25256 4.19132 2.40629 
250 1 1 4.08344 3.9699 3.28184 
156 1 1 4.81005 3.89312 2.62317 
155 1 1 5.67019 3.0409 2.62634 
175 1 1 5.56726 4.78047 2.2747 
254 1 1 5.80288 4.03601 3.13272 
158 1 1 7.40133 3.99216 1.73825 
159 1 1 7.35908 3.33631 2.50726 
160 1 1 6.51965 4.0296 2.25174 
258 1 1 7.16913 3.99509 3.26095 
162 1 1 1.00747 5.77528 1.75882 
163 1 1 7.9141 4.96019 1.74276 
168 1 1 1.54757 5.57841 2.81167 
183 1 1 0.651621 6.38544 2.4967 
262 1 1 0.743936 5.55385 3.34261 
166 1 1 2.68606 5.57915 1.66112 
265 1 1 1.52859 4.70365 3.24769 
171 1 1 4.16901 4.80427 2.53901 
269 1 1 3.29788 4.82647 3.26523 
172 1 1 3.25505 5.49162 2.51873 
170 1 1 4.20481 5.65722 1.84417 
193 1 1 4.85478 6.41564 1.59539 
277 1 1 6.37439 4.82216 3.2718 
176 1 1 5.11949 5.67408 2.49815 
180 1 1 6.3324 5.52176 2.38823 
178 1 1 7.17663 5.67259 1.719 
179 1 1 7.11182 4.84207 2.49215 
164 1 1 8.07321 5.63926 2.66166 
105 1 1 1.58046 0.0231961 1.6548 
103 1 1 0.715472 0.0422921 2.47893 
188 1 1 1.73967 7.18402 2.52313 
184 1 1 8.01128 7.13298 2.23227 
201 1 1 0.0957271 8.05328 3.34934 
186 1 1 2.57265 7.38741 1.61547 
107 1 1 2.40858 0.0584934 2.46793 
187 1 1 2.58537 6.35743 2.46905 
113 1 1 4.78837 8.06428 1.59384 
189 1 1 3.3224 6.46101 1.70103 
191 1 1 3.92011 6.51029 2.53356 
190 1 1 3.93591 7.27986 1.55503 
192 1 1 3.36025 7.32667 2.49072 
196 1 1 4.80684 7.18893 2.31912 
217 1 1 6.50642 7.99468 3.26605 
115 1 1 5.5032 7.8453 2.46833 
195 1 1 5.8362 6.44944 2.48797 
200 1 1 6.55618 7.26209 2.42164 
297 1 1 6.52637 6.5334 3.20137 
101 1 1 7.96793 8.00469 1.46153 
119 1 1 7.30185 7.94729 2.31369 
199 1 1 7.20323 6.41485 2.33475 
298 1 1 7.30806 7.277 3.23731 
281 1 1 8.00493 6.46429 3.2874 
202 1 1 0.830214 0.745521 3.12572 
204 1 1 0.0389171 0.93442 3.90912 
302 1 1 0.759383 0.959425 4.79965 
206 1 1 2.5252 0.925995 3.0101 
225 1 1 1.68954 1.66324 3.06168 
205 1 1 1.54517 8.0323 3.19282 
208 1 1 1.43463 0.735842 3.95958 
212 1 1 3.30174 0.824494 4.00706 
207 1 1 2.32803 0.00338778 3.89601 
210 1 1 4.17056 0.711929 3.22645 
211 1 1 4.07077 8.01299 4.02202 
310 1 1 4.03007 0.895975 4.98738 
216 1 1 5.04068 0.77792 3.97508 
215 1 1 5.84097 0.0744225 4.04088 
317 1 1 6.38613 8.05171 5.14705 
220 1 1 6.39835 0.834109 4.11993 
218 1 1 7.47299 0.776324 3.02091 
239 1 1 7.25835 1.58237 3.96328 
219 1 1 7.2588 0.127365 3.96948 
223 1 1 0.788783 1.76263 3.89955 
322 1 1 0.874221 2.31981 4.84593 
224 1 1 0.0895173 2.4923 3.97098 
321 1 1 0.0694418 1.72152 4.70456 
228 1 1 1.50991 2.66829 4.00644 
227 1 1 2.25798 1.46848 4.00266 
326 1 1 2.18646 2.39187 4.82664 
232 1 1 3.17215 2.38337 4.22259 
229 1 1 3.40728 1.52764 3.14289 
230 1 1 4.13434 2.32205 3.23596 
329 1 1 3.0521 1.68094 4.95749 
231 1 1 3.97684 1.54137 4.15977 
330 1 1 3.99496 2.37764 4.96424 
353 1 1 4.91781 3.00882 4.72859 
235 1 1 5.70666 1.65979 4.40187 
236 1 1 4.70828 2.23342 4.12663 
255 1 1 5.73362 3.19781 3.98344 
221 1 1 8.04838 1.63864 3.18147 
238 1 1 7.3965 2.43181 3.21804 
240 1 1 6.51662 2.4015 4.04568 
338 1 1 7.17781 2.48195 4.89543 
259 1 1 7.34311 3.2422 4.05255 
243 1 1 0.853166 3.39683 4.04755 
248 1 1 1.66577 4.07871 4.15579 
244 1 1 8.00386 4.12281 4.07442 
342 1 1 0.652121 3.97638 4.83317 
365 1 1 1.73027 4.70637 4.8773 
246 1 1 2.53032 3.92105 3.26833 
247 1 1 2.5246 3.18049 4.06755 
267 1 1 2.53989 4.82598 3.94505 
345 1 1 1.54443 3.30727 4.89466 
273 1 1 4.84124 4.68994 3.31818 
251 1 1 4.02016 3.13879 4.03519 
252 1 1 3.40265 4.0864 4.03151 
271 1 1 4.15661 4.83093 4.13998 
350 1 1 4.13636 3.99205 4.8021 
373 1 1 4.7786 4.86733 4.98835 
256 1 1 4.87396 3.87689 3.97009 
260 1 1 6.41616 4.06389 4.04318 
241 1 1 0.178845 3.31706 3.22741 
358 1 1 7.3206 4.02227 4.80224 
341 1 1 7.97348 3.19938 4.83457 
361 1 1 8.03328 4.75492 4.97281 
263 1 1 0.914722 4.85008 4.22093 
261 1 1 8.06184 4.65559 3.12621 
283 1 1 0.791176 6.41599 4.00975 
362 1 1 0.77531 5.72571 4.87905 
266 1 1 2.51244 5.67889 3.24306 
268 1 1 1.73564 5.6905 4.06401 
287 1 1 2.50045 6.36689 4.05613 
272 1 1 3.20252 5.65997 4.3004 
389 1 1 3.19846 6.5511 4.79848 
270 1 1 4.04513 5.57402 3.25112 
291 1 1 4.02628 6.43881 3.98287 
370 1 1 4.00931 5.76669 4.92332 
276 1 1 4.86214 5.81122 3.98024 
369 1 1 3.23571 4.82852 4.86731 
274 1 1 5.77201 5.72113 3.4355 
275 1 1 5.62333 4.72136 4.14445 
293 1 1 4.89084 6.55803 3.04943 
280 1 1 6.5492 5.63939 4.21954 
278 1 1 7.12317 5.56441 3.21254 
264 1 1 8.02877 5.60657 4.19646 
279 1 1 7.22092 4.83247 4.06784 
378 1 1 7.31439 5.58099 4.86576 
381 1 1 0.0809275 6.43031 4.91777 
282 1 1 0.805891 7.22752 3.15253 
203 1 1 0.790813 0.0285848 4.2099 
284 1 1 8.03467 7.43035 4.20535 
301 1 1 7.97954 0.244411 4.77958 
288 1 1 1.46407 7.41398 3.9219 
382 1 1 0.78286 7.19276 4.7131 
285 1 1 1.69992 6.44351 3.21945 
286 1 1 2.48635 7.18111 3.31413 
292 1 1 3.22743 7.25534 3.92524 
386 1 1 2.40673 7.41471 4.96012 
289 1 1 3.27805 6.36484 3.35139 
290 1 1 4.03346 7.17085 3.24347 
390 1 1 4.03383 7.20573 4.73442 
294 1 1 5.66264 7.27246 3.41794 
295 1 1 5.78644 6.52498 4.10095 
296 1 1 4.88712 7.27414 4.14872 
300 1 1 6.53704 7.30252 4.19085 
299 1 1 7.35085 6.44982 4.06098 
398 1 1 7.28629 7.40358 4.95122 
304 1 1 0.0525288 0.765091 5.62545 
303 1 1 0.840215 0.0453178 5.41602 
402 1 1 0.881402 0.714297 6.34441 
306 1 1 2.42725 0.774347 4.79962 
308 1 1 1.56953 0.793801 5.65143 
406 1 1 2.43879 0.785717 6.57198 
312 1 1 3.12357 0.81379 5.74324 
311 1 1 3.88255 0.121209 5.70792 
331 1 1 3.93716 1.61809 5.63736 
316 1 1 4.72427 0.825763 5.8092 
337 1 1 6.58425 1.68457 4.79866 
314 1 1 5.62762 0.70216 4.85607 
315 1 1 5.42718 0.00551553 5.80643 
313 1 1 4.76791 8.06083 4.80764 
318 1 1 7.24171 0.960139 4.72606 
320 1 1 6.54091 1.06348 5.65102 
319 1 1 7.25903 0.145452 5.70882 
437 1 1 6.66756 1.76116 6.40318 
417 1 1 6.43776 0.162848 6.26363 
323 1 1 0.851053 1.56536 5.69065 
425 1 1 1.7557 1.54015 6.5766 
445 1 1 1.57211 3.16551 6.53774 
327 1 1 2.25867 1.5756 5.67389 
325 1 1 1.623 1.55535 4.81387 
328 1 1 1.51696 2.38224 5.76591 
347 1 1 2.24497 3.13495 5.7025 
332 1 1 3.13412 2.46544 5.63927 
336 1 1 4.77638 2.5234 5.7172 
333 1 1 4.80443 1.65586 4.99556 
334 1 1 5.92495 2.59848 4.8813 
335 1 1 5.70472 1.68504 5.48153 
355 1 1 5.8555 3.26275 5.80041 
340 1 1 6.73024 2.51476 5.74868 
457 1 1 6.55736 3.26003 6.57442 
357 1 1 6.56206 3.32709 4.78692 
324 1 1 8.07561 2.48184 5.50778 
339 1 1 7.43976 1.54989 5.6183 
343 1 1 0.807048 3.30813 5.58392 
344 1 1 7.99887 3.9901 5.72665 
461 1 1 8.0092 4.7382 6.52355 
346 1 1 2.60249 4.00837 4.84679 
349 1 1 3.39182 3.33369 4.8202 
348 1 1 1.71171 3.95347 5.68293 
352 1 1 3.18344 4.14325 5.72791 
446 1 1 2.3852 4.04297 6.5921 
351 1 1 4.05224 3.24338 5.61015 
450 1 1 4.09339 3.95088 6.46064 
354 1 1 5.66602 3.99828 4.95009 
356 1 1 4.90625 3.98302 5.77106 
375 1 1 5.66766 4.90294 5.55242 
454 1 1 5.6708 4.25271 6.40276 
377 1 1 6.4679 4.7978 4.86641 
359 1 1 7.38179 3.23756 5.7798 
360 1 1 6.48335 4.09878 5.612 
458 1 1 7.21198 4.10171 6.43378 
379 1 1 7.28217 4.8002 5.61578 
363 1 1 0.865168 4.83845 5.5215 
385 1 1 1.62417 6.56754 4.74051 
364 1 1 7.99394 5.6339 5.79403 
367 1 1 2.46705 4.83225 5.61999 
368 1 1 1.55448 5.62998 5.62612 
485 1 1 1.46865 6.38668 6.53557 
366 1 1 2.3553 5.60929 4.85174 
387 1 1 2.45142 6.32554 5.58991 
466 1 1 2.31097 5.67963 6.42737 
372 1 1 3.1645 5.62983 5.55896 
371 1 1 4.00415 4.69837 5.6553 
391 1 1 4.02259 6.53873 5.68632 
470 1 1 4.03868 5.71174 6.39607 
376 1 1 4.80172 5.75769 5.73865 
393 1 1 4.76323 6.39424 4.79681 
374 1 1 5.49602 5.64753 4.75455 
395 1 1 5.50111 6.45876 5.67837 
380 1 1 6.38574 5.63244 5.47498 
478 1 1 7.36576 5.93939 6.5104 
497 1 1 6.21615 6.13125 6.33104 
305 1 1 1.70964 0.0749369 4.81504 
383 1 1 0.957175 6.37874 5.60676 
482 1 1 0.84879 7.43777 6.21102 
384 1 1 0.0180548 7.24785 5.51625 
388 1 1 1.55566 7.33795 5.49989 
307 1 1 2.3912 7.9145 5.7486 
405 1 1 1.64251 7.98034 6.5022 
486 1 1 2.53374 7.06854 6.56741 
309 1 1 3.2352 0.0539074 4.81922 
409 1 1 3.19153 7.95802 6.52121 
392 1 1 3.33483 7.34502 5.5861 
490 1 1 3.92152 7.17582 6.57081 
396 1 1 4.76066 7.25304 5.51868 
413 1 1 4.67795 7.96679 6.43671 
394 1 1 5.66685 7.19295 4.93231 
494 1 1 5.69559 7.14265 6.43001 
397 1 1 6.52609 6.52314 4.90258 
400 1 1 6.58461 6.98014 5.99304 
399 1 1 7.32408 6.45825 5.48283 
498 1 1 7.47159 7.33594 6.48171 
2 1 1 0.899756 0.957729 7.89654 
5 1 1 1.56956 0.025172 0.037437 
21 1 1 0.155266 1.68225 8.00447 
404 1 1 7.84039 0.893814 7.49703 
1 1 1 0.115003 7.96442 0.0244765 
403 1 1 0.912148 0.0854245 7.30373 
408 1 1 1.60459 0.794004 7.24684 
412 1 1 3.22171 0.742179 7.35875 
410 1 1 4.01534 0.677185 6.64113 
433 1 1 4.65028 1.69174 6.48375 
33 1 1 4.98833 1.63607 0.017911 
416 1 1 4.89246 0.838915 7.14958 
414 1 1 5.74078 1.05206 6.3161 
435 1 1 5.53985 1.67837 7.02357 
420 1 1 6.4687 0.808537 7.17964 
18 1 1 6.98174 0.576549 8.00464 
418 1 1 7.35972 0.848497 6.53647 
419 1 1 7.2564 0.0765643 7.18823 
439 1 1 7.28594 1.79039 7.2189 
422 1 1 0.751665 2.46789 6.3824 
441 1 1 8.06723 3.38443 6.51158 
423 1 1 0.789389 1.72384 7.09416 
428 1 1 1.50179 2.3857 7.15852 
26 1 1 2.50961 2.44692 8.02203 
429 1 1 3.1798 1.48183 6.59742 
427 1 1 2.41419 1.66251 7.3383 
426 1 1 2.33855 2.49861 6.50441 
447 1 1 2.50366 3.27036 7.17445 
453 1 1 4.94947 3.41048 6.59005 
431 1 1 3.9925 1.64208 7.3035 
432 1 1 3.1339 2.40381 7.08021 
430 1 1 3.90425 2.40071 6.36946 
436 1 1 4.81698 2.4322 7.28799 
434 1 1 5.5927 2.52295 6.51143 
440 1 1 6.35818 2.42041 7.22898 
455 1 1 5.67846 3.35671 7.25027 
421 1 1 0.157938 1.52511 6.42518 
438 1 1 7.47866 2.3882 6.41896 
424 1 1 0.157967 2.59252 7.22448 
459 1 1 7.25313 3.24315 7.26954 
42 1 1 0.62996 4.08158 0.168219 
443 1 1 0.724382 3.50761 7.41215 
442 1 1 0.860657 4.11222 6.38356 
465 1 1 1.60566 4.80793 6.31121 
463 1 1 0.772519 4.88866 7.48188 
448 1 1 1.56323 4.08582 7.2828 
46 1 1 2.50737 3.90388 7.96755 
449 1 1 3.27221 3.22029 6.37348 
451 1 1 4.05986 3.14091 7.15202 
452 1 1 3.29057 4.07807 7.15212 
471 1 1 3.91692 4.89487 7.06185 
456 1 1 4.75661 4.03514 7.45619 
477 1 1 6.46268 4.94125 6.3109 
475 1 1 5.53649 4.79255 7.31538 
77 1 1 6.5903 5.13685 0.00499359 
61 1 1 7.83748 4.76311 7.99619 
460 1 1 6.37915 4.27271 7.40474 
444 1 1 7.91694 4.06517 7.29477 
462 1 1 0.683026 5.60784 6.41498 
468 1 1 1.63093 5.50242 7.36369 
66 1 1 2.44096 5.54102 0.0914675 
467 1 1 2.45933 4.87717 7.34516 
487 1 1 2.207 6.35929 7.36953 
472 1 1 3.2707 5.93621 7.24641 
473 1 1 4.74485 4.81079 6.50145 
469 1 1 3.13848 5.08855 6.45875 
73 1 1 4.77339 4.7826 0.0824802 
489 1 1 3.20353 6.33275 6.42074 
474 1 1 5.50486 5.4767 6.36262 
476 1 1 4.89356 5.58421 7.26991 
480 1 1 6.32284 5.58171 7.22389 
495 1 1 5.67451 6.47847 7.14346 
464 1 1 7.99375 5.52317 7.23819 
479 1 1 7.1296 4.97906 7.0721 
78 1 1 7.75188 6.52087 7.34505 
499 1 1 6.74903 6.51277 7.19929 
82 1 1 0.95332 7.16193 0.200402 
483 1 1 0.744199 6.37227 7.28407 
488 1 1 1.44831 7.28259 7.30087 
484 1 1 0.288811 7.35231 7.25614 
86 1 1 2.21997 7.22874 7.96917 
85 1 1 1.61133 6.34427 0.143118 
407 1 1 2.39788 0.0952758 7.32513 
492 1 1 3.10861 7.23787 7.34577 
491 1 1 4.18139 6.29837 7.39971 
90 1 1 3.93097 7.37905 0.0790685 
411 1 1 3.97687 8.04468 7.35877 
415 1 1 5.51118 0.0338967 7.16348 
493 1 1 4.83986 6.5092 6.49101 
496 1 1 4.61242 7.31302 7.36068 
97 1 1 6.44114 6.51048 0.129728 
81 1 1 0.252921 6.32903 0.233725 
98 1 1 7.14101 7.25114 7.90727 
481 1 1 0.274031 6.67469 6.29141 
401 1 1 8.05926 0.0634673 6.37691 
500 1 1 6.47108 7.59117 6.99681 
