ITEM: TIMESTEP
27000
ITEM: NUMBER OF ATOMS
500
ITEM: BOX BOUNDS pp pp pp
0 8.07388
0 8.07388
0 8.07388
ITEM: ATOMS id type mass x y z 
4 1 1 8.06524 0.809109 1.00767 
2 1 1 0.716097 0.739439 0.0854115 
23 1 1 0.741556 1.53662 0.96997 
125 1 1 1.60399 1.70524 1.64004 
8 1 1 1.61161 0.642556 0.936242 
12 1 1 3.25615 0.69762 0.757001 
27 1 1 2.45063 1.50325 1.03374 
11 1 1 4.06191 7.8754 0.864342 
133 1 1 4.82283 1.4562 1.562 
31 1 1 3.81526 1.47975 0.846983 
16 1 1 4.63216 0.861029 0.743735 
15 1 1 5.56431 8.0442 0.797823 
35 1 1 5.57643 1.56445 0.770076 
20 1 1 6.45933 0.560186 0.863506 
18 1 1 7.19018 0.808181 8.05117 
21 1 1 -0.00559406 1.55301 0.134977 
39 1 1 7.26154 1.48694 0.741565 
37 1 1 6.39011 1.45953 0.106757 
22 1 1 0.813716 2.30137 0.0451805 
28 1 1 1.61994 2.36566 0.723184 
43 1 1 0.708464 3.23903 0.806734 
121 1 1 8.02876 1.63638 1.61852 
25 1 1 1.5032 1.52565 0.0836245 
49 1 1 3.15805 3.16594 7.96172 
29 1 1 3.16266 1.59537 0.0201146 
32 1 1 3.24458 2.25399 0.868563 
26 1 1 2.46705 2.35564 8.07637 
30 1 1 3.89385 2.26352 0.0808085 
51 1 1 4.002 3.34671 0.584595 
149 1 1 3.10715 3.26938 1.73113 
36 1 1 4.73597 2.37262 0.693819 
55 1 1 5.55405 3.27538 0.711213 
153 1 1 4.84416 3.17923 1.58077 
34 1 1 5.5356 2.51816 8.06386 
40 1 1 6.50382 2.40774 0.586857 
24 1 1 8.05065 2.40597 0.793894 
59 1 1 7.27891 3.14974 0.825671 
45 1 1 1.6587 3.18693 0.071029 
142 1 1 0.93074 3.91822 1.64857 
42 1 1 1.01187 3.97273 7.91408 
65 1 1 1.58469 4.7789 7.99005 
47 1 1 2.35251 3.03317 0.878896 
48 1 1 1.45763 4.06268 0.74039 
46 1 1 2.34509 4.04884 0.080487 
52 1 1 3.22991 3.99372 0.834061 
50 1 1 4.01493 4.0818 7.91049 
71 1 1 3.92369 4.86328 0.942151 
150 1 1 3.8971 4.24147 1.68222 
56 1 1 4.68083 4.06603 0.759692 
75 1 1 5.65081 4.94659 1.11709 
173 1 1 4.7643 4.88803 1.61033 
60 1 1 6.40597 4.14474 0.851623 
44 1 1 8.02247 4.01593 0.867641 
63 1 1 0.683427 4.72246 0.75231 
68 1 1 1.5582 5.67582 0.762041 
162 1 1 0.830709 5.51951 1.43079 
64 1 1 8.05332 5.71 0.880521 
62 1 1 0.856741 5.55796 7.99682 
67 1 1 2.39541 4.86629 0.847775 
72 1 1 3.16125 5.70216 1.02906 
69 1 1 3.18512 4.88194 0.102707 
87 1 1 2.40538 6.39892 1.04128 
73 1 1 4.88107 4.79743 7.98757 
76 1 1 4.93302 5.50705 0.737117 
91 1 1 4.01627 6.37643 0.894663 
70 1 1 3.85075 5.71492 0.0849679 
80 1 1 6.56494 5.73179 0.903719 
177 1 1 6.62861 4.93713 1.66444 
174 1 1 5.78305 5.80419 1.78692 
74 1 1 5.65291 5.7929 7.98756 
161 1 1 7.33255 4.77744 0.912449 
178 1 1 7.41803 5.59902 1.85323 
79 1 1 7.20894 5.68386 8.07691 
3 1 1 0.612057 0.0228554 0.929432 
83 1 1 0.969265 6.4591 0.655742 
84 1 1 0.117124 7.19076 0.737217 
7 1 1 2.49188 0.00741677 0.870605 
105 1 1 1.68897 8.01496 1.7258 
5 1 1 1.77788 0.105829 0.0478882 
88 1 1 1.69267 7.34047 0.885798 
186 1 1 2.32009 7.29955 1.71578 
89 1 1 3.00596 6.44294 -0.0233987 
92 1 1 3.27353 7.18692 0.873222 
190 1 1 3.77516 7.30922 1.64776 
90 1 1 3.97374 7.15193 8.02465 
113 1 1 4.87374 7.94518 1.59066 
95 1 1 5.68172 6.52119 0.78231 
96 1 1 4.81365 7.07452 0.772011 
93 1 1 4.7653 6.3049 7.91763 
94 1 1 5.51771 7.17248 7.9345 
99 1 1 7.24561 6.51895 0.7233 
100 1 1 6.39536 7.37021 0.553681 
19 1 1 7.42844 8.06656 0.770631 
98 1 1 7.27288 7.32673 8.07469 
102 1 1 1.05052 0.840737 1.67108 
123 1 1 0.745168 1.67358 2.17598 
108 1 1 1.49862 0.932595 2.63345 
104 1 1 8.02026 0.902043 2.46473 
201 1 1 8.05684 0.0715086 3.20297 
109 1 1 3.14621 -0.01789 1.82463 
106 1 1 2.34697 0.752696 1.90911 
112 1 1 3.24512 0.714752 2.47676 
107 1 1 2.4184 0.0667029 2.64718 
209 1 1 3.31153 -0.0420866 3.38503 
110 1 1 3.95548 0.673865 1.5917 
116 1 1 4.89684 0.929827 2.67931 
111 1 1 4.11316 8.04694 2.6044 
229 1 1 3.28771 1.65376 3.25894 
114 1 1 5.51795 0.63074 1.70409 
135 1 1 5.78724 1.51143 2.20995 
118 1 1 7.14529 0.761906 1.67247 
117 1 1 6.3734 7.94226 1.5648 
120 1 1 6.45723 0.687861 2.33554 
137 1 1 6.48049 1.39919 1.43593 
139 1 1 7.2199 1.58508 2.40015 
119 1 1 7.1876 8.01534 2.42794 
122 1 1 0.786864 2.4372 1.52196 
128 1 1 1.78078 2.42162 2.40421 
241 1 1 0.102814 3.22904 3.21746 
124 1 1 8.04437 2.27575 2.48927 
145 1 1 1.56567 3.13145 1.62997 
126 1 1 2.56523 2.32189 1.72793 
127 1 1 2.52029 1.52886 2.50801 
129 1 1 3.2629 1.59447 1.74775 
147 1 1 2.53668 3.33073 2.61234 
130 1 1 4.14858 2.3553 1.4931 
131 1 1 3.97611 1.66588 2.47621 
132 1 1 3.30087 2.48995 2.41029 
151 1 1 4.33439 3.04001 2.50789 
136 1 1 4.92722 2.13954 2.29106 
134 1 1 5.48932 2.33637 1.4537 
155 1 1 5.67325 3.05068 2.21851 
140 1 1 6.46998 2.48196 2.26391 
234 1 1 5.72195 2.31036 3.05032 
157 1 1 6.35351 3.1562 1.29784 
138 1 1 7.20876 2.41799 1.56005 
141 1 1 8.08957 3.16422 1.68495 
238 1 1 7.43975 2.54252 3.27991 
245 1 1 1.61502 3.17754 3.26526 
143 1 1 0.904045 3.16359 2.47134 
144 1 1 0.175516 3.96401 2.34568 
148 1 1 1.64678 4.03573 2.50175 
244 1 1 0.875257 4.02088 3.28048 
146 1 1 2.30419 3.94905 1.68917 
165 1 1 1.67262 4.74539 1.6125 
152 1 1 3.37428 4.1149 2.50167 
265 1 1 1.62524 4.98685 3.10321 
167 1 1 2.59036 4.78464 2.59423 
169 1 1 2.97373 4.69533 1.60255 
269 1 1 3.29676 4.88109 3.21624 
171 1 1 4.21783 4.90129 2.49212 
249 1 1 3.31694 3.25599 3.29115 
154 1 1 5.675 3.92619 1.52611 
156 1 1 4.97818 3.98593 2.32584 
160 1 1 6.3991 4.02997 2.22977 
158 1 1 7.23995 4.00492 1.72251 
159 1 1 7.09242 3.30707 2.47014 
258 1 1 7.38353 4.08716 3.23025 
261 1 1 0.00683251 5.05162 3.49348 
277 1 1 6.56377 4.74019 3.10337 
181 1 1 0.116676 6.54803 1.50814 
242 1 1 0.830826 4.84312 2.46552 
262 1 1 0.785289 5.73775 3.19758 
164 1 1 0.120233 5.64983 2.48276 
183 1 1 0.803738 6.41232 2.38445 
166 1 1 2.5209 5.64214 1.80557 
185 1 1 1.54814 6.41802 1.54506 
168 1 1 1.51419 5.6818 2.34126 
187 1 1 2.32136 6.47259 2.45135 
170 1 1 4.01183 5.63294 1.86589 
273 1 1 5.00342 4.59213 3.21747 
172 1 1 3.31835 5.80873 2.56774 
176 1 1 4.93408 5.84366 2.45372 
175 1 1 5.58493 4.83791 2.14004 
180 1 1 6.48743 5.58393 2.51452 
274 1 1 5.69485 5.53898 3.16503 
163 1 1 8.06201 4.68435 1.70699 
179 1 1 7.5086 4.78502 2.53968 
278 1 1 7.43235 5.81637 3.28302 
103 1 1 0.890227 0.0923629 2.48549 
281 1 1 0.0585206 6.51679 3.22448 
182 1 1 0.737803 7.3539 1.5756 
101 1 1 0.135508 0.166513 1.81852 
184 1 1 8.03341 7.27267 2.33354 
282 1 1 0.769126 7.4524 3.26102 
189 1 1 3.17689 6.4942 1.7291 
188 1 1 1.44402 7.20081 2.46054 
289 1 1 3.07558 6.49884 3.31825 
286 1 1 2.26122 7.34415 3.21613 
191 1 1 4.11792 6.62505 2.35967 
192 1 1 3.20802 7.34698 2.61648 
290 1 1 4.06579 7.26451 3.3961 
196 1 1 4.93146 7.30965 2.49101 
193 1 1 4.79613 6.49191 1.637 
115 1 1 5.64883 8.0343 2.51969 
197 1 1 6.63751 6.47549 1.53834 
194 1 1 5.77247 7.14458 1.58433 
195 1 1 5.80057 6.5001 2.49156 
200 1 1 6.46261 7.21763 2.48063 
293 1 1 4.81636 6.5964 3.13845 
199 1 1 7.29986 6.53595 2.36706 
198 1 1 7.43809 7.29426 1.50985 
298 1 1 7.25484 7.28709 3.23418 
202 1 1 0.636737 0.824784 3.23389 
208 1 1 1.54537 0.942102 3.74657 
204 1 1 0.0810099 0.777934 4.05584 
223 1 1 0.844869 1.66887 3.99531 
203 1 1 0.682501 0.034821 3.90503 
301 1 1 0.137218 8.0915 4.89309 
206 1 1 2.59771 0.768628 3.33426 
205 1 1 1.5536 0.0910734 3.25204 
212 1 1 3.35388 0.740425 4.22538 
227 1 1 2.4133 1.57263 4.02622 
309 1 1 3.22435 0.105972 4.96652 
210 1 1 4.04014 0.91942 3.24158 
211 1 1 4.08111 0.0529656 4.21588 
216 1 1 4.694 0.875272 4.12101 
213 1 1 4.8399 7.99666 3.344 
217 1 1 6.40099 8.01399 3.20494 
214 1 1 5.73955 1.03742 3.35142 
313 1 1 4.77542 0.167746 4.89127 
314 1 1 5.68652 0.866703 4.83541 
237 1 1 6.66258 1.82976 3.42013 
218 1 1 7.17756 0.836134 3.27157 
220 1 1 6.40844 0.838872 4.13627 
239 1 1 7.25968 1.62675 4.21985 
221 1 1 0.0645851 1.64499 3.38064 
219 1 1 7.24668 -0.038021 4.15438 
317 1 1 6.55136 8.03903 4.82765 
318 1 1 7.3391 0.746547 4.81939 
222 1 1 0.768167 2.38329 3.12937 
224 1 1 0.135192 2.39011 4.16203 
322 1 1 0.981668 2.38324 4.7764 
225 1 1 1.67142 1.7594 3.20268 
226 1 1 2.56602 2.34601 3.13116 
228 1 1 1.75659 2.48997 4.01685 
247 1 1 2.42975 3.20368 3.87519 
232 1 1 3.13351 2.49392 4.16289 
329 1 1 3.0589 1.62123 4.76599 
231 1 1 3.9957 1.6227 3.99568 
233 1 1 4.78977 1.78977 3.21578 
230 1 1 4.01347 2.54506 3.34481 
236 1 1 5.00206 2.70361 4.01043 
235 1 1 5.56654 1.84032 4.14563 
255 1 1 5.70596 3.4689 4.05335 
357 1 1 6.41661 3.15596 4.97011 
337 1 1 6.5126 1.58926 4.83412 
240 1 1 6.33629 2.44514 4.19794 
259 1 1 7.30353 3.24621 3.98482 
338 1 1 7.20262 2.46664 4.76706 
243 1 1 0.82608 3.27874 3.9653 
248 1 1 1.67396 4.0712 4.02106 
342 1 1 0.861673 4.08687 4.88753 
246 1 1 2.50884 4.0474 3.36029 
346 1 1 2.29103 4.07022 4.8892 
349 1 1 3.01775 3.37738 4.71771 
369 1 1 3.08787 4.90352 4.73748 
253 1 1 5.07253 3.2588 3.11459 
251 1 1 3.89586 3.31115 4.2197 
252 1 1 3.17148 4.15242 4.11999 
250 1 1 4.20453 3.9437 3.20663 
256 1 1 4.73375 3.92851 4.14926 
254 1 1 5.78761 3.97067 3.21259 
260 1 1 6.60892 3.95921 3.93556 
354 1 1 5.55928 4.1082 4.88891 
377 1 1 6.44909 4.84085 4.74602 
257 1 1 6.34781 3.08699 3.29499 
358 1 1 0.10063 4.07897 4.08458 
379 1 1 7.32529 4.07052 4.73155 
279 1 1 7.22527 4.88329 3.96899 
263 1 1 0.926524 4.79065 3.93614 
264 1 1 0.0441578 5.83855 4.16529 
362 1 1 0.97215 5.66505 4.84068 
381 1 1 0.073213 6.37785 4.9861 
266 1 1 2.44664 5.72799 3.19187 
267 1 1 2.29323 4.96968 4.0147 
268 1 1 1.60923 5.7366 3.99194 
366 1 1 2.40645 5.7157 4.89805 
272 1 1 3.1902 5.6283 4.00357 
270 1 1 4.35764 5.67121 3.18497 
271 1 1 4.14049 4.89046 4.08297 
276 1 1 5.0189 5.39961 3.8822 
291 1 1 4.12301 6.43808 4.02647 
275 1 1 5.80247 4.65737 3.98258 
295 1 1 5.51314 6.4001 3.94507 
280 1 1 6.50547 5.71444 3.95211 
299 1 1 7.30113 6.59937 4.01398 
378 1 1 7.28349 5.70013 4.80755 
297 1 1 6.48665 6.52539 3.28858 
283 1 1 0.94538 6.49217 4.11122 
284 1 1 0.0934668 7.18121 3.97974 
382 1 1 0.70831 7.24361 4.92761 
285 1 1 1.53427 6.56983 3.25447 
207 1 1 2.34132 0.0704097 4.0062 
287 1 1 2.24833 6.59596 3.98606 
288 1 1 1.5268 7.35357 3.93373 
386 1 1 2.2545 7.27763 4.8858 
292 1 1 3.06849 7.35179 4.07192 
390 1 1 3.94476 7.41113 4.91129 
215 1 1 5.62004 0.076859 4.04862 
296 1 1 4.84975 7.14022 4.09933 
294 1 1 5.74954 7.26245 3.19099 
300 1 1 6.35185 7.20956 4.10495 
398 1 1 7.57441 7.16535 4.87911 
302 1 1 0.861054 0.723499 4.73745 
325 1 1 1.62918 1.50151 4.76537 
304 1 1 0.0852104 0.671139 5.77018 
305 1 1 1.57001 8.05805 4.71798 
308 1 1 1.56063 0.928974 5.78083 
306 1 1 2.4228 0.809186 4.70893 
312 1 1 3.27682 1.0162 5.71971 
327 1 1 2.3737 1.57362 5.53679 
307 1 1 2.4 0.175638 5.5007 
310 1 1 4.0856 1.05752 5.10429 
331 1 1 4.04067 1.6704 5.8889 
333 1 1 4.81192 1.7887 4.75956 
316 1 1 4.93952 0.91557 5.67427 
335 1 1 5.76842 1.66454 5.67943 
315 1 1 5.71008 0.0323086 5.46506 
437 1 1 6.59712 1.7439 6.50349 
320 1 1 6.65669 0.818988 5.5704 
319 1 1 7.27899 8.05152 5.58586 
418 1 1 7.18218 0.670252 6.42059 
321 1 1 0.185294 1.47789 4.84965 
341 1 1 0.118187 3.23495 4.84671 
323 1 1 0.737674 1.54412 5.64144 
328 1 1 1.69537 2.3576 5.76262 
324 1 1 0.104179 2.30011 5.47119 
343 1 1 0.870253 3.17001 5.67989 
421 1 1 7.97109 1.70673 6.51201 
326 1 1 2.41387 2.48103 4.89993 
426 1 1 2.30622 2.39539 6.55553 
449 1 1 3.07275 3.24487 6.43436 
332 1 1 2.93962 2.37917 5.82463 
330 1 1 3.90983 2.382 5.1297 
336 1 1 4.94744 2.15551 5.78842 
334 1 1 5.63239 2.49085 5.04447 
434 1 1 5.68191 2.30416 6.48271 
340 1 1 6.50769 2.37138 5.57343 
339 1 1 7.28154 1.66877 5.58837 
438 1 1 7.17298 2.6105 6.42047 
359 1 1 7.33246 3.17312 5.49846 
363 1 1 0.790072 4.80343 5.84361 
345 1 1 1.63692 3.28138 4.69593 
348 1 1 1.47718 4.05799 5.75632 
442 1 1 0.835809 3.96308 6.56442 
347 1 1 2.19425 3.28411 5.63504 
367 1 1 2.39319 4.94825 5.70967 
445 1 1 1.64877 3.19377 6.46666 
469 1 1 3.23076 4.93216 6.37795 
465 1 1 1.61511 4.90175 6.50921 
350 1 1 3.92467 4.14242 5.01755 
353 1 1 4.66002 3.17799 4.98251 
352 1 1 3.08467 4.04395 5.47259 
351 1 1 3.78267 3.32823 5.65008 
356 1 1 4.69748 3.96143 5.7884 
355 1 1 5.53072 3.37065 5.73232 
454 1 1 5.58117 3.99807 6.54106 
360 1 1 6.39131 3.89195 5.64231 
344 1 1 0.0531292 3.92543 5.55199 
457 1 1 6.2984 3.13501 6.58195 
478 1 1 7.39036 4.81033 5.46532 
441 1 1 0.0472462 3.06636 6.42364 
361 1 1 8.03024 4.95167 4.72685 
383 1 1 0.780574 6.43634 5.79867 
461 1 1 8.04104 4.61712 6.50398 
462 1 1 0.678208 5.69235 6.59582 
485 1 1 1.53312 6.52639 6.52603 
365 1 1 1.65411 4.90218 4.87789 
368 1 1 1.60606 5.6897 5.86663 
372 1 1 3.1619 5.87538 5.67203 
370 1 1 3.8667 5.65628 4.84502 
371 1 1 4.06552 4.88118 5.69759 
373 1 1 4.85053 4.82651 5.02237 
374 1 1 5.57572 5.52842 4.77905 
375 1 1 5.724 4.74146 5.55438 
376 1 1 4.94781 5.63118 5.71017 
474 1 1 5.86135 5.5061 6.27802 
380 1 1 6.51218 5.60149 5.49248 
397 1 1 6.51912 6.39698 4.91279 
364 1 1 0.0218178 5.54634 5.69344 
399 1 1 7.36496 6.22304 5.84696 
401 1 1 0.0570164 0.0232911 6.50343 
385 1 1 1.55508 6.44932 4.94355 
303 1 1 0.956073 0.0368461 5.66905 
384 1 1 0.179079 7.37238 5.72551 
388 1 1 1.46303 7.24651 5.69093 
387 1 1 2.28077 6.49348 5.79358 
389 1 1 3.18946 6.62501 4.79564 
392 1 1 3.09316 7.24818 5.64307 
311 1 1 4.09074 0.0727528 5.69742 
391 1 1 3.92941 6.62067 5.58853 
393 1 1 4.72672 6.44249 4.84396 
396 1 1 4.81278 7.34898 5.56819 
413 1 1 4.89311 0.0779256 6.47087 
395 1 1 5.61078 6.48681 5.77515 
394 1 1 5.57135 7.25945 4.85111 
494 1 1 5.5715 7.27658 6.44484 
417 1 1 6.32615 0.00632779 6.41812 
400 1 1 6.4947 7.21966 5.67153 
481 1 1 0.0164414 6.51187 6.4539 
498 1 1 7.38708 7.25024 6.38933 
402 1 1 0.765871 0.796007 6.56994 
408 1 1 1.57546 0.845928 7.32386 
404 1 1 0.107895 0.766855 7.37943 
425 1 1 1.59495 1.60642 6.57039 
406 1 1 2.3463 0.920483 6.40869 
6 1 1 2.28489 0.95693 0.0311585 
409 1 1 3.19597 0.252244 6.38759 
13 1 1 4.786 -0.00474152 0.0794528 
429 1 1 3.11437 1.54091 6.5018 
412 1 1 3.30687 0.686 7.35974 
410 1 1 4.00217 0.83787 6.52559 
10 1 1 4.0046 0.763112 0.0414119 
431 1 1 3.96589 1.59044 7.30975 
416 1 1 4.80025 0.697777 7.36475 
14 1 1 5.55649 0.799448 8.07545 
414 1 1 5.76111 0.869101 6.42656 
420 1 1 6.53098 0.854059 7.24279 
33 1 1 4.92733 1.59387 7.99128 
433 1 1 4.94376 1.43012 6.59697 
17 1 1 6.47029 8.05618 7.86143 
419 1 1 7.35329 7.974 7.19563 
439 1 1 7.42132 1.51923 7.32386 
41 1 1 8.04309 3.16002 0.0540965 
423 1 1 0.859663 1.68469 7.35141 
422 1 1 0.926272 2.43022 6.46649 
428 1 1 1.52645 2.5161 7.40661 
427 1 1 2.33607 1.66205 7.2599 
447 1 1 2.29985 3.13788 7.34676 
430 1 1 3.84416 2.50244 6.4061 
432 1 1 3.23481 2.36227 7.23709 
436 1 1 4.67044 2.40267 7.11635 
435 1 1 5.69154 1.54663 7.23545 
53 1 1 4.72107 3.39714 7.91307 
455 1 1 5.61692 3.291 7.33888 
38 1 1 7.2424 2.27654 7.96958 
424 1 1 0.0520244 2.37205 7.30661 
440 1 1 6.35642 2.30728 7.39046 
443 1 1 0.732549 3.13411 7.18801 
444 1 1 8.05993 4.05819 7.49955 
61 1 1 7.96493 4.9028 0.0616151 
446 1 1 2.48403 4.04979 6.44251 
448 1 1 1.7041 3.98501 7.12167 
452 1 1 3.12846 4.02335 7.25091 
451 1 1 4.00895 3.19143 7.31063 
450 1 1 4.01645 3.98574 6.69672 
54 1 1 5.64487 4.07383 0.0570918 
453 1 1 4.81866 3.26034 6.53785 
456 1 1 4.805 4.10037 7.22999 
475 1 1 5.73511 4.6723 7.36994 
460 1 1 6.40782 3.8533 7.35928 
57 1 1 6.5664 3.22375 0.0594716 
58 1 1 7.24913 4.13425 0.247055 
458 1 1 7.38788 3.84511 6.41169 
459 1 1 7.42956 3.24691 7.25083 
77 1 1 6.32428 4.92236 0.147713 
81 1 1 0.0563684 6.49138 0.0394902 
463 1 1 0.727518 4.8662 7.20299 
468 1 1 1.5867 5.5589 7.27938 
464 1 1 8.03333 5.5781 7.25412 
483 1 1 0.830011 6.52794 7.5842 
66 1 1 2.29383 5.50959 8.06807 
467 1 1 2.42665 4.87357 7.2293 
466 1 1 2.41477 5.7519 6.52487 
472 1 1 3.3722 5.61057 7.28732 
487 1 1 2.51905 6.48622 7.22164 
489 1 1 3.25629 6.52603 6.52819 
473 1 1 5.04939 4.9185 6.39493 
493 1 1 4.81649 6.57938 6.42904 
471 1 1 4.18639 4.91033 7.2811 
470 1 1 4.16276 5.70207 6.43722 
491 1 1 4.00472 6.48689 7.26006 
477 1 1 6.4794 4.59035 6.50629 
497 1 1 6.48173 6.38355 6.45667 
476 1 1 5.05624 5.68152 7.07178 
480 1 1 6.43027 5.58269 7.18127 
499 1 1 7.23484 5.302 6.38648 
479 1 1 7.19019 4.60326 7.37222 
78 1 1 7.22596 6.43469 7.23595 
1 1 1 -0.00920575 8.02819 8.05971 
82 1 1 0.927276 7.3956 0.16514 
482 1 1 0.840241 7.36539 6.61643 
85 1 1 1.6845 6.404 7.98426 
403 1 1 0.840111 0.099968 7.3361 
488 1 1 1.72937 7.41759 7.29549 
9 1 1 3.35767 8.05331 8.11288 
407 1 1 2.44382 0.268816 7.33102 
405 1 1 1.66566 0.140311 6.5506 
86 1 1 2.46214 7.31009 0.215778 
486 1 1 2.34415 7.45331 6.40066 
492 1 1 3.02949 7.53247 7.15012 
490 1 1 3.94605 7.37802 6.44143 
411 1 1 4.03245 8.04259 7.26323 
496 1 1 4.78175 7.19395 7.24712 
415 1 1 5.57962 0.062306 7.33512 
495 1 1 5.68099 6.49292 7.20759 
97 1 1 6.51843 6.53188 8.03425 
500 1 1 6.28469 7.31028 7.10338 
484 1 1 0.0685698 7.21504 7.33592 
