ITEM: TIMESTEP
37000
ITEM: NUMBER OF ATOMS
500
ITEM: BOX BOUNDS pp pp pp
0 8.07388
0 8.07388
0 8.07388
ITEM: ATOMS id type mass x y z 
3 1 1 0.892279 7.9223 0.742885 
8 1 1 1.59288 0.74339 0.912277 
2 1 1 0.84088 0.673949 7.99888 
27 1 1 2.48965 1.60351 0.725464 
105 1 1 1.70284 7.97716 1.76641 
7 1 1 2.49473 7.95028 0.754375 
106 1 1 2.49428 0.772532 1.55391 
125 1 1 1.71727 1.45877 1.75159 
12 1 1 3.21181 0.690052 0.799608 
10 1 1 3.9937 0.640995 0.0643152 
31 1 1 4.14221 1.67549 0.698613 
113 1 1 4.79415 0.162783 1.78584 
13 1 1 4.99384 0.141889 0.130144 
16 1 1 4.8538 0.810191 0.876579 
14 1 1 5.68857 1.13293 7.9878 
15 1 1 5.71275 0.160922 0.901682 
35 1 1 5.80247 1.75238 1.02602 
20 1 1 6.361 0.889449 0.810482 
17 1 1 6.27171 0.074348 0.0749158 
4 1 1 8.04482 0.700294 0.860508 
19 1 1 7.15251 -0.0109215 0.715479 
18 1 1 7.15515 0.8783 0.221786 
1 1 1 8.00038 0.13444 8.03937 
23 1 1 0.723448 1.54243 0.995751 
28 1 1 1.59413 2.2132 1.0285 
145 1 1 1.66859 3.25642 1.69644 
47 1 1 2.58746 3.27472 0.739589 
129 1 1 3.18527 1.60234 1.49635 
32 1 1 3.17519 2.33747 0.6123 
51 1 1 4.08578 3.24172 0.625207 
29 1 1 3.32925 1.49645 0.0852323 
30 1 1 4.21596 2.45994 0.0358367 
36 1 1 4.81486 2.61169 0.91956 
37 1 1 6.52176 1.73169 0.129595 
33 1 1 4.78051 1.65938 7.88239 
137 1 1 6.6448 1.73254 1.62774 
40 1 1 6.58938 2.57713 0.90623 
24 1 1 0.101693 2.437 0.79324 
39 1 1 7.32828 1.74748 0.808528 
121 1 1 8.07109 1.63561 1.73545 
21 1 1 8.00741 1.52095 0.0198731 
43 1 1 0.888454 3.16003 0.727359 
63 1 1 0.742537 4.82896 0.765101 
44 1 1 0.179306 3.92692 0.678598 
142 1 1 0.735752 4.03351 1.59031 
42 1 1 0.978412 4.14404 8.04481 
45 1 1 1.67849 3.27221 0.0301312 
48 1 1 1.73439 4.06807 0.773407 
67 1 1 2.48702 4.76092 0.87974 
146 1 1 2.48852 3.8478 1.53637 
65 1 1 1.8134 4.92253 0.162854 
52 1 1 3.38629 3.95552 0.790222 
56 1 1 4.83539 3.87871 0.814825 
55 1 1 5.79062 3.24289 0.806729 
60 1 1 6.53916 4.12255 0.658152 
75 1 1 5.55067 4.92159 0.666257 
54 1 1 5.5755 4.14574 8.02878 
57 1 1 6.41921 3.23287 8.03958 
59 1 1 7.33752 3.31341 0.687466 
58 1 1 7.28215 3.97967 7.99091 
161 1 1 7.22609 4.83297 0.812344 
162 1 1 0.783906 5.60331 1.65551 
62 1 1 0.873167 5.67416 0.110264 
68 1 1 1.58249 5.68267 0.881744 
83 1 1 0.779825 6.40356 0.947516 
66 1 1 2.57838 5.69471 0.00291893 
185 1 1 1.5916 6.36826 1.65614 
166 1 1 2.55688 5.68568 1.69882 
72 1 1 3.32138 5.49243 0.832105 
169 1 1 3.2696 4.66605 1.64852 
71 1 1 4.12108 4.76572 0.857216 
70 1 1 3.91992 5.68931 0.00707727 
76 1 1 4.86927 5.64718 0.880632 
174 1 1 5.66298 5.70049 1.63595 
80 1 1 6.40476 5.65711 0.789635 
97 1 1 6.39071 6.3531 8.04431 
181 1 1 7.92864 6.53765 1.57137 
64 1 1 0.0471114 5.65658 0.900779 
99 1 1 7.23097 6.3838 0.8468 
178 1 1 7.16599 5.60213 1.4952 
5 1 1 1.67519 7.92911 0.0760791 
182 1 1 0.877961 7.22951 1.66528 
85 1 1 1.72086 6.3856 0.13928 
82 1 1 0.863256 7.07395 0.107096 
88 1 1 1.72405 7.21575 0.94797 
87 1 1 2.46884 6.33937 0.956676 
186 1 1 2.25317 7.1947 1.81807 
91 1 1 4.00574 6.40735 0.84304 
92 1 1 3.23053 7.21346 0.764616 
11 1 1 4.04987 8.10886 1.02732 
93 1 1 4.77201 6.51373 0.0246277 
190 1 1 3.94521 7.40874 1.70631 
89 1 1 3.15445 6.54331 7.97673 
95 1 1 5.65597 6.54114 0.899236 
96 1 1 4.81124 7.40457 0.902604 
94 1 1 5.64931 7.36317 0.155927 
197 1 1 6.45305 6.45252 1.65139 
100 1 1 6.5075 7.23707 0.896635 
84 1 1 0.0763699 7.23773 0.69957 
98 1 1 7.18272 7.27582 0.0267955 
102 1 1 0.693481 0.788853 1.80096 
108 1 1 1.66428 0.54517 2.52966 
202 1 1 0.767088 0.787613 3.2042 
225 1 1 1.64363 1.56763 3.2186 
206 1 1 2.53042 0.815036 3.26232 
127 1 1 2.37483 1.58422 2.50541 
112 1 1 3.26374 1.02211 2.37108 
107 1 1 2.59863 -0.00181777 2.49944 
109 1 1 3.26226 0.144677 1.73129 
110 1 1 4.14024 1.142 1.61326 
116 1 1 4.84518 1.0648 2.52427 
131 1 1 3.99512 1.74884 2.44878 
133 1 1 4.94092 1.74831 1.47098 
111 1 1 3.94439 0.105778 2.41495 
114 1 1 5.62754 0.879027 1.59983 
115 1 1 5.71429 0.208034 2.44789 
117 1 1 6.49045 8.05515 1.61908 
120 1 1 6.50906 0.911885 2.34983 
104 1 1 7.79921 0.859251 2.30149 
118 1 1 7.23824 0.710257 1.47832 
119 1 1 7.12516 -0.0664899 2.45109 
123 1 1 0.770789 1.58601 2.58155 
122 1 1 0.841434 2.23138 1.79568 
124 1 1 0.0665446 2.3969 2.41854 
126 1 1 2.36922 2.46238 1.66991 
128 1 1 1.63115 2.29496 2.41284 
226 1 1 2.34727 2.411 3.23631 
130 1 1 4.01061 2.21411 1.55 
153 1 1 5.05508 3.18163 1.72765 
132 1 1 3.14148 2.47296 2.4628 
136 1 1 4.76379 2.49459 2.47867 
253 1 1 5.00508 3.11889 3.2756 
149 1 1 3.24612 3.00629 1.5484 
134 1 1 5.82122 2.65327 1.55755 
233 1 1 4.74168 1.8799 3.34363 
135 1 1 5.74454 1.6867 2.37124 
234 1 1 5.73853 2.37923 3.31253 
157 1 1 6.55297 3.37803 1.60416 
140 1 1 6.50005 2.56204 2.41267 
139 1 1 7.37216 1.70816 2.52901 
138 1 1 7.35594 2.50476 1.73722 
238 1 1 7.26575 2.43498 3.13335 
141 1 1 0.200801 3.06845 1.55277 
241 1 1 0.0930608 3.22612 3.30615 
143 1 1 0.752631 3.25447 2.43183 
148 1 1 1.55306 4.04811 2.39964 
242 1 1 0.913346 4.86528 2.42198 
165 1 1 1.71948 4.87568 1.50813 
147 1 1 2.41684 3.24859 2.52755 
152 1 1 3.14939 4.05648 2.51521 
269 1 1 3.2394 4.88557 3.24073 
265 1 1 1.52695 4.91295 3.1763 
151 1 1 3.92301 3.28149 2.39054 
150 1 1 4.10703 3.97478 1.63322 
156 1 1 5.04871 4.05774 2.54222 
155 1 1 5.75143 3.28214 2.40768 
154 1 1 5.79016 4.003 1.59369 
160 1 1 6.46477 3.95441 2.57945 
257 1 1 6.54381 3.15697 3.29441 
177 1 1 6.35298 4.86712 1.52702 
144 1 1 0.0162093 4.19173 2.3869 
158 1 1 7.30536 4.05756 1.46108 
159 1 1 7.46192 3.46503 2.28154 
163 1 1 8.01906 4.80152 1.58187 
179 1 1 7.22685 4.81448 2.30842 
183 1 1 0.67785 6.62616 2.40677 
168 1 1 1.7491 5.55267 2.36867 
285 1 1 1.5734 6.53659 3.21086 
281 1 1 8.00549 6.60359 3.13835 
167 1 1 2.38794 4.8855 2.47338 
172 1 1 3.27487 5.59132 2.47224 
171 1 1 3.93846 4.82301 2.42792 
189 1 1 3.28402 6.46483 1.49286 
170 1 1 3.9773 5.61105 1.68966 
270 1 1 3.97691 5.6139 3.14354 
175 1 1 5.6805 4.92632 2.45304 
173 1 1 4.96176 4.69845 1.60476 
176 1 1 4.84469 5.50011 2.3032 
180 1 1 6.51172 5.65635 2.43266 
277 1 1 6.59998 4.84102 3.22859 
164 1 1 7.95033 5.57648 2.22493 
199 1 1 7.28108 6.41863 2.35286 
278 1 1 7.40676 5.71786 3.14024 
103 1 1 0.773643 7.97915 2.44509 
205 1 1 1.58814 7.98653 3.27499 
184 1 1 7.80823 7.30121 2.41137 
282 1 1 0.653248 7.28895 3.19982 
201 1 1 8.05542 -0.00273525 3.16956 
187 1 1 2.58119 6.4576 2.5362 
188 1 1 1.52407 7.3054 2.52876 
289 1 1 3.3607 6.55258 3.253 
286 1 1 2.32359 7.22517 3.39046 
191 1 1 3.95061 6.44339 2.39762 
192 1 1 3.23331 7.33455 2.37058 
196 1 1 4.85007 7.26313 2.44662 
194 1 1 5.53917 7.44299 1.73204 
193 1 1 4.8499 6.6117 1.66209 
195 1 1 5.72292 6.40713 2.45191 
293 1 1 4.70084 6.44776 3.22729 
101 1 1 7.94939 7.90705 1.49316 
198 1 1 7.16025 7.3051 1.6883 
200 1 1 6.43625 7.20782 2.50229 
297 1 1 6.49324 6.24052 3.28424 
302 1 1 0.820665 0.823575 5.02157 
204 1 1 -0.00884416 0.81785 4.06026 
305 1 1 1.54716 0.0282322 5.02177 
229 1 1 3.34146 1.68224 3.32473 
208 1 1 1.52446 0.705187 3.9608 
212 1 1 3.25328 0.905359 4.05983 
329 1 1 3.20038 1.55246 4.9151 
325 1 1 1.51651 1.53542 4.74375 
210 1 1 4.00049 0.888776 3.23244 
216 1 1 4.8672 0.773171 4.05808 
310 1 1 4.04805 0.820914 4.7774 
213 1 1 4.7218 0.102567 3.12963 
313 1 1 4.86248 7.9898 4.84277 
214 1 1 5.55724 0.891438 3.23874 
217 1 1 6.48573 0.147777 3.24479 
215 1 1 5.64008 8.1037 3.9364 
218 1 1 7.33408 0.7916 3.28799 
220 1 1 6.3599 0.984154 3.98132 
219 1 1 7.20496 8.05739 4.02253 
301 1 1 8.02981 0.14087 4.87823 
222 1 1 0.820004 2.44239 3.27343 
223 1 1 0.874694 1.68575 4.0365 
322 1 1 0.850959 2.39272 4.82855 
228 1 1 1.64606 2.5606 4.13012 
221 1 1 0.0772153 1.67334 3.29653 
245 1 1 1.62328 3.44507 3.20839 
321 1 1 0.0735889 1.48801 4.77464 
227 1 1 2.41261 1.49721 4.19828 
247 1 1 2.50886 3.17607 4.04136 
230 1 1 3.93525 2.51201 3.35496 
249 1 1 3.26045 3.4108 3.34118 
231 1 1 4.1055 1.67405 4.09128 
232 1 1 3.13888 2.40212 4.30104 
251 1 1 4.00929 3.32394 4.08613 
235 1 1 5.57026 1.71394 4.06319 
236 1 1 4.73311 2.49936 4.14487 
255 1 1 5.72387 3.13429 4.03899 
240 1 1 6.40295 2.39342 4.14492 
337 1 1 6.39866 1.80954 4.93688 
237 1 1 6.50406 1.65655 3.17324 
239 1 1 7.35427 1.59028 3.90112 
224 1 1 8.04117 2.41713 4.17408 
338 1 1 7.2746 2.33247 4.78588 
244 1 1 0.742358 4.04815 3.28942 
261 1 1 8.01391 4.83677 3.03051 
243 1 1 0.851339 3.24322 4.0575 
263 1 1 0.644723 5.00202 3.84072 
345 1 1 1.61499 3.35342 4.91809 
246 1 1 2.27285 4.2419 3.21202 
248 1 1 1.62336 4.05906 4.10625 
346 1 1 2.4933 4.14383 5.10845 
267 1 1 2.30057 4.9464 4.17085 
250 1 1 4.24581 3.93303 3.256 
252 1 1 2.97357 4.19531 4.22245 
271 1 1 3.9876 4.9064 3.95038 
256 1 1 4.99429 4.0739 4.00347 
254 1 1 5.75636 3.94037 3.29535 
353 1 1 4.81651 3.28161 4.81602 
275 1 1 5.7565 4.88246 3.837 
354 1 1 5.73918 4.00768 4.6926 
258 1 1 7.46222 4.06581 3.28226 
357 1 1 6.44876 3.21114 4.77822 
259 1 1 7.36284 3.30008 3.91049 
260 1 1 6.54861 4.09009 3.96631 
358 1 1 0.0214412 3.90286 4.17326 
279 1 1 7.53182 4.80135 4.06731 
262 1 1 0.779117 5.78352 3.02488 
362 1 1 0.595973 5.52972 4.90152 
264 1 1 0.0100712 5.79051 3.92428 
283 1 1 0.603988 6.60623 4.04619 
268 1 1 1.41725 5.75488 3.9536 
266 1 1 2.40107 5.58961 3.28239 
272 1 1 3.12065 5.67455 4.00543 
366 1 1 2.32044 5.59518 5.0397 
273 1 1 4.75201 4.85901 3.12563 
393 1 1 4.90646 6.55683 4.79416 
370 1 1 4.04613 5.65284 4.744 
276 1 1 4.91404 5.57561 3.99348 
274 1 1 5.65808 5.62397 3.20591 
280 1 1 6.46566 5.5206 4.0414 
374 1 1 5.71932 5.54192 4.87727 
378 1 1 7.22582 5.65755 5.10596 
299 1 1 7.25899 6.48309 4.17684 
381 1 1 7.93021 6.44571 4.94325 
203 1 1 0.636308 7.97736 4.02354 
288 1 1 1.55168 7.24477 4.1255 
284 1 1 7.90021 7.28229 4.27748 
209 1 1 3.22385 8.08361 3.32576 
287 1 1 2.36279 6.45506 4.21001 
385 1 1 1.4404 6.42452 4.75659 
207 1 1 2.39571 0.0755227 4.05854 
292 1 1 3.18372 7.21637 3.99368 
211 1 1 3.94479 8.06199 4.06148 
291 1 1 4.01357 6.49708 4.02169 
290 1 1 4.15336 7.39374 3.19851 
296 1 1 4.73708 7.39817 3.95298 
390 1 1 3.86555 7.25376 4.77461 
295 1 1 5.64793 6.23602 4.03147 
294 1 1 5.64311 7.21517 3.18986 
300 1 1 6.31772 7.23278 4.05541 
394 1 1 5.55642 7.19706 4.69609 
397 1 1 6.46486 6.44602 4.86287 
298 1 1 7.15661 7.26788 3.22581 
398 1 1 7.14775 7.33536 4.93004 
304 1 1 8.04256 0.884263 5.70981 
402 1 1 0.880146 0.834963 6.5453 
308 1 1 1.66589 0.73389 5.75081 
303 1 1 0.791924 0.0248626 5.77765 
405 1 1 1.67509 7.98466 6.359 
306 1 1 2.35972 0.717639 4.90589 
312 1 1 3.22326 0.703739 5.65905 
406 1 1 2.46102 0.692032 6.46726 
331 1 1 3.9646 1.56269 5.62559 
333 1 1 4.81227 1.5655 4.77524 
316 1 1 4.97734 0.904533 5.57099 
314 1 1 5.75093 0.930717 4.98695 
414 1 1 5.65935 0.830959 6.39088 
335 1 1 5.71808 1.77096 5.72061 
320 1 1 6.40188 0.754583 5.69749 
318 1 1 6.93352 0.829448 4.84042 
437 1 1 6.68349 1.6772 6.27371 
323 1 1 0.810528 1.60789 5.64684 
328 1 1 1.54231 2.2759 5.57605 
327 1 1 2.32569 1.50344 5.57456 
326 1 1 2.32351 2.42769 4.98199 
426 1 1 2.50373 2.40224 6.39255 
347 1 1 2.31852 3.38708 5.73649 
349 1 1 3.2335 3.27036 4.8715 
330 1 1 4.10421 2.30585 4.95332 
332 1 1 3.2653 2.47298 5.7106 
430 1 1 4.11861 2.25293 6.54477 
351 1 1 4.17051 3.15329 5.61746 
453 1 1 4.80369 3.36362 6.59357 
334 1 1 5.43366 2.48647 5.05345 
336 1 1 4.81526 2.33637 5.82718 
340 1 1 6.70084 2.53643 5.6907 
324 1 1 0.0158141 2.33132 5.62635 
339 1 1 7.21868 1.47321 5.46875 
438 1 1 7.39124 2.44564 6.37851 
342 1 1 0.830627 4.04117 4.9436 
361 1 1 8.10267 4.69363 4.88429 
343 1 1 0.781341 3.15996 5.81683 
442 1 1 0.802578 3.85323 6.56565 
344 1 1 0.12929 4.02532 5.80002 
369 1 1 3.30167 4.87769 4.96423 
365 1 1 1.69374 4.75207 5.13886 
348 1 1 1.58182 4.08218 5.79556 
367 1 1 2.49135 4.90826 5.89013 
350 1 1 4.10796 4.14024 4.7395 
352 1 1 3.30099 4.09066 5.8266 
450 1 1 4.00767 3.95295 6.552 
473 1 1 4.91498 4.74457 6.40576 
356 1 1 4.79315 3.97888 5.62763 
355 1 1 5.62009 3.46476 5.5851 
454 1 1 5.67193 3.9888 6.41068 
341 1 1 0.259743 3.16676 4.87362 
457 1 1 6.51606 3.18824 6.40746 
360 1 1 6.43159 4.04261 5.4733 
379 1 1 7.24349 3.95287 4.87338 
359 1 1 7.52068 3.13559 5.50883 
458 1 1 7.1806 4.03177 6.49531 
441 1 1 0.0123332 3.19027 6.56653 
363 1 1 0.802832 4.7873 5.65874 
368 1 1 1.50718 5.69527 5.62012 
383 1 1 0.702482 6.33818 5.55068 
387 1 1 2.20682 6.46156 5.61619 
372 1 1 3.20545 5.66049 5.64339 
466 1 1 2.48989 5.79661 6.50828 
469 1 1 3.36151 4.91311 6.4233 
389 1 1 3.19087 6.37134 4.89709 
371 1 1 4.23512 4.72808 5.64813 
373 1 1 4.84108 4.92248 4.81235 
470 1 1 4.18711 5.54096 6.28901 
376 1 1 4.95237 5.6432 5.49152 
375 1 1 5.56418 4.72272 5.48955 
380 1 1 6.47058 5.68754 5.7388 
377 1 1 6.41483 4.8191 4.87915 
477 1 1 6.3296 4.81391 6.41714 
461 1 1 -0.00197758 4.72999 6.60148 
364 1 1 7.93869 5.46163 5.75488 
478 1 1 7.22543 4.71326 5.73346 
399 1 1 7.17538 6.48193 5.74467 
499 1 1 7.18089 5.75994 6.51089 
382 1 1 0.782775 7.23099 4.97245 
384 1 1 8.0678 7.33239 5.7288 
386 1 1 2.2455 7.27312 4.93987 
388 1 1 1.43445 7.13516 5.74043 
307 1 1 2.4554 7.97921 5.62541 
309 1 1 3.22663 8.05454 4.84859 
392 1 1 3.06585 7.17646 5.55201 
311 1 1 4.0544 8.06256 5.60824 
391 1 1 3.98528 6.44205 5.53075 
396 1 1 4.9192 7.28955 5.64296 
413 1 1 4.77795 0.052165 6.47806 
395 1 1 5.66874 6.47219 5.6546 
315 1 1 5.54673 0.0744111 5.74439 
494 1 1 5.56109 7.21173 6.56271 
493 1 1 4.73566 6.36876 6.31235 
317 1 1 6.39831 8.02065 4.7163 
319 1 1 7.2293 0.0890038 5.67946 
400 1 1 6.29775 7.22927 5.43775 
425 1 1 1.74329 1.50183 6.49721 
408 1 1 1.77252 0.720351 7.2105 
423 1 1 0.985362 1.68798 7.18758 
403 1 1 0.869689 7.95325 7.39729 
6 1 1 2.4011 0.635756 0.129635 
9 1 1 3.20021 7.98784 0.00147977 
407 1 1 2.46225 8.03095 7.25319 
410 1 1 4.01674 0.705814 6.39777 
429 1 1 3.31463 1.38119 6.36343 
412 1 1 3.26554 0.621962 7.22748 
411 1 1 3.98014 7.98478 7.37067 
431 1 1 3.96127 1.43229 7.17487 
409 1 1 3.22345 7.94518 6.38443 
416 1 1 4.75805 0.733825 7.35988 
435 1 1 5.81597 1.66693 7.15687 
433 1 1 4.8447 1.47286 6.51382 
421 1 1 8.03883 1.71047 6.49818 
418 1 1 7.22919 0.769484 6.51724 
404 1 1 0.105949 0.960846 7.18268 
420 1 1 6.22797 0.640438 7.19082 
419 1 1 7.20953 0.0883543 7.29071 
25 1 1 1.69559 1.46707 0.0555736 
422 1 1 0.98742 2.40931 6.4224 
22 1 1 0.949146 2.38793 0.0683111 
445 1 1 1.65519 3.18547 6.51245 
427 1 1 2.53708 1.49385 7.44704 
26 1 1 2.18629 2.40831 0.148004 
449 1 1 3.33946 3.2357 6.46277 
428 1 1 1.78788 2.31864 7.21648 
447 1 1 2.50199 3.2166 7.26092 
432 1 1 3.38832 2.2827 7.36231 
49 1 1 3.23306 3.20693 8.10518 
34 1 1 5.67653 2.3918 0.0457881 
434 1 1 5.61819 2.72207 6.41177 
436 1 1 4.97277 2.46724 7.19336 
53 1 1 4.87732 3.30369 7.98893 
424 1 1 0.22029 2.22828 7.34134 
440 1 1 6.5338 2.43184 7.27548 
38 1 1 7.30374 2.50477 -0.000532518 
439 1 1 7.20944 1.65205 7.41343 
41 1 1 0.0274475 3.21717 0.0200907 
443 1 1 0.821686 3.16367 7.46257 
444 1 1 0.163974 4.0714 7.45812 
465 1 1 1.64673 4.87824 6.53981 
46 1 1 2.54049 4.07286 0.102498 
446 1 1 2.54718 4.09089 6.52227 
448 1 1 1.57717 3.84285 7.26044 
452 1 1 3.26504 4.31083 7.27706 
69 1 1 3.24997 4.8148 0.119097 
50 1 1 4.02693 3.89039 7.87727 
451 1 1 4.00629 3.10369 7.2738 
471 1 1 3.91459 5.00781 7.31487 
77 1 1 6.35063 4.9085 7.91803 
455 1 1 5.66684 3.20677 7.36378 
456 1 1 4.78416 4.16697 7.24948 
460 1 1 6.40724 3.9821 7.32813 
459 1 1 7.22813 3.24632 7.17428 
479 1 1 7.13102 4.86893 7.15902 
81 1 1 0.0271536 6.42607 0.034272 
463 1 1 0.891357 4.94871 7.27244 
462 1 1 0.709435 5.7303 6.53715 
483 1 1 0.836879 6.4144 7.37894 
467 1 1 2.47221 4.95606 7.14526 
485 1 1 1.52611 6.34558 6.51172 
468 1 1 1.63668 5.71179 7.39395 
489 1 1 3.23056 6.43078 6.37379 
487 1 1 2.40091 6.51426 7.18825 
73 1 1 4.75858 5.09826 8.06354 
472 1 1 3.19941 5.73097 7.2624 
476 1 1 4.81915 5.67147 7.17813 
74 1 1 5.5357 5.68734 8.00767 
497 1 1 6.40686 6.56486 6.51202 
475 1 1 5.60495 4.91829 7.14301 
474 1 1 5.60348 5.67706 6.44775 
495 1 1 5.50344 6.41665 7.37043 
480 1 1 6.36127 5.65347 7.1392 
481 1 1 8.00286 6.37418 6.54012 
61 1 1 -0.0228907 4.87887 8.04416 
464 1 1 8.0377 5.68898 7.3793 
79 1 1 7.20234 5.65267 0.134783 
78 1 1 7.14933 6.52773 7.40139 
482 1 1 0.75564 7.26039 6.69522 
86 1 1 2.37018 7.18824 8.02184 
486 1 1 2.39236 7.19317 6.37142 
488 1 1 1.57619 7.20962 7.38846 
90 1 1 4.03679 7.27326 0.122259 
490 1 1 4.10149 7.21912 6.31968 
492 1 1 3.10012 7.30313 7.21906 
491 1 1 4.07807 6.53191 7.22713 
415 1 1 5.4924 7.89092 7.25367 
496 1 1 4.74911 7.22062 7.24301 
500 1 1 6.29887 7.21544 7.3532 
417 1 1 6.36233 7.93172 6.41049 
401 1 1 8.07433 1.59611e-05 6.70641 
484 1 1 8.00925 7.17955 7.33899 
498 1 1 7.27734 7.45253 6.5128 
