ITEM: TIMESTEP
36000
ITEM: NUMBER OF ATOMS
500
ITEM: BOX BOUNDS pp pp pp
0 8.07388
0 8.07388
0 8.07388
ITEM: ATOMS id type mass x y z 
3 1 1 0.688475 0.115577 0.848235 
8 1 1 1.55063 0.869319 0.567425 
2 1 1 0.639297 0.842723 0.108373 
27 1 1 2.45874 1.5458 0.667232 
105 1 1 1.68718 0.113629 1.23316 
7 1 1 2.51716 0.0339549 0.653994 
106 1 1 2.48085 0.734296 1.51535 
125 1 1 1.61837 1.51961 1.56725 
12 1 1 3.32213 0.827226 0.735444 
10 1 1 4.1484 0.783346 0.102803 
31 1 1 4.03788 1.57561 0.847899 
113 1 1 4.7873 0.057254 1.61047 
13 1 1 5.00011 0.0744554 0.0563019 
16 1 1 4.98844 0.896281 0.789632 
14 1 1 5.96137 0.914602 0.139094 
15 1 1 5.74119 0.0923381 0.815284 
35 1 1 5.61936 1.6056 1.03902 
20 1 1 6.65182 0.895645 0.832004 
17 1 1 6.50315 0.0148526 0.0127885 
4 1 1 7.99316 0.879691 0.770355 
19 1 1 7.28197 0.0711294 0.99078 
18 1 1 7.34179 0.988702 0.0130493 
1 1 1 7.96171 0.0584417 0.0178989 
23 1 1 0.84783 1.8927 0.784037 
28 1 1 1.70516 2.41415 0.90472 
145 1 1 1.73965 3.21272 1.56404 
47 1 1 2.54439 3.11104 0.801309 
129 1 1 3.12858 1.70262 1.40599 
32 1 1 3.26876 2.39122 0.756178 
51 1 1 4.11992 3.07487 0.848724 
29 1 1 3.31449 1.62389 0.0725301 
30 1 1 4.10433 2.25829 0.0609089 
36 1 1 4.86985 2.28348 0.841557 
37 1 1 6.44231 1.75451 0.0274577 
33 1 1 5.16922 1.62354 0.065478 
137 1 1 6.5356 1.74136 1.54745 
40 1 1 6.49431 2.42468 0.781798 
24 1 1 8.032 2.73373 0.863778 
39 1 1 7.27971 1.77464 0.853912 
121 1 1 8.0306 1.72915 1.58864 
21 1 1 8.02371 1.73743 0.0716551 
43 1 1 0.936155 3.29903 0.818478 
63 1 1 0.72128 4.7859 0.988419 
44 1 1 0.00267151 3.77985 0.823112 
142 1 1 0.782461 3.93805 1.54453 
42 1 1 0.73917 4.19362 0.250307 
45 1 1 1.77452 3.27375 0.0875185 
48 1 1 1.65353 4.07348 0.937348 
67 1 1 2.66268 4.6537 0.861126 
146 1 1 2.57006 3.8145 1.55595 
65 1 1 1.77025 4.8273 0.0804662 
52 1 1 3.5351 3.99082 0.728255 
56 1 1 4.70149 4.05851 0.991811 
55 1 1 5.54364 3.25179 0.875808 
60 1 1 6.34127 4.07338 0.743236 
75 1 1 5.57593 4.76919 0.897113 
54 1 1 5.43155 4.02509 0.158711 
57 1 1 6.49411 3.24912 0.032645 
59 1 1 7.12026 3.29124 0.940052 
58 1 1 7.18634 4.15616 0.0444477 
161 1 1 7.27722 4.61063 0.881806 
162 1 1 0.575466 5.57227 1.59851 
62 1 1 0.9105 5.53744 0.117317 
68 1 1 1.6017 5.30112 1.07359 
83 1 1 0.735973 6.26596 0.866571 
66 1 1 2.47245 5.63642 0.331989 
185 1 1 1.64313 6.31503 1.23439 
166 1 1 2.52702 5.55522 1.54696 
72 1 1 3.34233 5.76887 0.871422 
169 1 1 3.37242 4.99914 1.58139 
71 1 1 4.10681 4.89968 0.681457 
70 1 1 4.13529 5.76595 0.0608838 
76 1 1 4.86085 5.78395 0.840175 
174 1 1 5.66245 5.78043 1.58134 
80 1 1 6.4485 5.42944 0.837468 
97 1 1 6.34862 6.26972 0.0512581 
181 1 1 7.95029 6.33877 1.50946 
64 1 1 7.96957 5.45915 0.813907 
99 1 1 7.169 6.35912 0.762614 
178 1 1 7.1932 5.43932 1.53658 
5 1 1 1.49927 8.04107 0.0792011 
182 1 1 0.819166 7.23008 1.41108 
85 1 1 1.61344 6.49893 0.0288537 
82 1 1 0.729627 7.26565 0.198565 
88 1 1 1.63147 7.27696 0.726178 
87 1 1 2.72097 6.58251 0.913253 
186 1 1 2.40736 7.37693 1.52331 
91 1 1 4.14968 6.71084 0.899475 
92 1 1 3.29629 7.44712 0.793039 
11 1 1 4.15449 8.0676 0.797335 
93 1 1 4.8022 6.50601 0.0351561 
190 1 1 4.00494 7.42969 1.59923 
89 1 1 3.29594 6.62589 0.0769206 
95 1 1 5.75084 6.46494 0.772196 
96 1 1 5.01699 7.29421 0.807648 
94 1 1 5.76706 7.27838 0.0795071 
197 1 1 6.5539 6.50169 1.56133 
100 1 1 6.48675 7.39096 0.998365 
84 1 1 8.00961 7.34911 0.851297 
98 1 1 7.26752 7.3603 0.124532 
102 1 1 0.758339 0.85949 1.61849 
108 1 1 1.54186 0.63399 2.37589 
202 1 1 0.988154 0.726801 3.17153 
225 1 1 1.64106 1.59557 3.20506 
206 1 1 2.2277 0.623901 3.19219 
127 1 1 2.27676 1.59233 2.42971 
112 1 1 2.99418 0.944505 2.37027 
107 1 1 2.43389 0.0486604 2.35113 
109 1 1 3.20518 0.027487 1.64153 
110 1 1 4.0494 0.791763 1.65462 
116 1 1 4.62223 0.866588 2.65229 
131 1 1 3.93526 1.60437 2.36967 
133 1 1 4.80692 1.48367 1.66226 
111 1 1 3.80224 0.213372 2.60391 
114 1 1 5.70109 0.817152 1.69151 
115 1 1 5.68554 0.0560335 2.46204 
117 1 1 6.63654 0.18997 1.80375 
120 1 1 6.51474 1.04179 2.43039 
104 1 1 8.06977 0.921269 2.65379 
118 1 1 7.49197 0.828385 1.77487 
119 1 1 7.43584 0.0783171 2.56197 
123 1 1 0.979041 1.65612 2.53619 
122 1 1 0.722627 2.46234 1.66982 
124 1 1 0.0141067 2.45064 2.48333 
126 1 1 2.4539 2.39079 1.72101 
128 1 1 1.66641 2.58231 2.45889 
226 1 1 2.48757 2.42999 3.13399 
130 1 1 4.00766 2.36882 1.65945 
153 1 1 4.77842 3.12831 1.73416 
132 1 1 3.31727 2.39616 2.51124 
136 1 1 4.70978 2.26208 2.3795 
253 1 1 4.82598 2.95673 3.1593 
149 1 1 3.32487 3.14362 1.74144 
134 1 1 5.53974 2.439 1.76481 
233 1 1 4.92661 1.73999 3.1876 
135 1 1 5.66193 1.79736 2.4441 
234 1 1 5.73254 2.52457 3.17309 
157 1 1 6.37086 3.19888 1.68373 
140 1 1 6.52905 2.3964 2.35203 
139 1 1 7.26676 1.67696 2.57889 
138 1 1 7.32574 2.49861 1.66535 
238 1 1 7.05602 2.53175 3.21699 
141 1 1 0.066997 3.25622 1.74871 
241 1 1 0.0533749 3.26131 3.12671 
143 1 1 0.889609 3.33019 2.4034 
148 1 1 1.57238 4.08968 2.4861 
242 1 1 0.655408 4.73939 2.45497 
165 1 1 1.82685 4.60737 1.74029 
147 1 1 2.19618 3.40248 2.56654 
152 1 1 3.07839 4.02268 2.52323 
269 1 1 3.17848 4.73513 3.19848 
265 1 1 1.71477 4.83292 3.1465 
151 1 1 3.97609 3.29133 2.56055 
150 1 1 3.97686 4.04184 1.72308 
156 1 1 4.7328 3.99008 2.4976 
155 1 1 5.6238 3.28412 2.54676 
154 1 1 5.47763 4.02069 1.71528 
160 1 1 6.30372 4.07008 2.48564 
257 1 1 6.43222 3.28985 3.1418 
177 1 1 6.34568 4.76951 1.75044 
144 1 1 7.9891 4.0443 2.5124 
158 1 1 7.05897 4.06011 1.70689 
159 1 1 7.2104 3.29501 2.33695 
163 1 1 7.96909 4.59043 1.65424 
179 1 1 7.15009 4.60056 2.57533 
183 1 1 0.937581 6.37955 2.22542 
168 1 1 1.53323 5.51799 2.27949 
285 1 1 1.5894 6.27745 3.0678 
281 1 1 0.158518 6.36816 2.94348 
167 1 1 2.5249 4.91306 2.40661 
172 1 1 3.18693 5.76023 2.34253 
171 1 1 3.97575 4.9772 2.43053 
189 1 1 3.45091 6.44518 1.64891 
170 1 1 4.0975 5.68299 1.71279 
270 1 1 4.00434 5.75881 3.1211 
175 1 1 5.46384 4.94633 2.50454 
173 1 1 4.86498 4.88966 1.65201 
176 1 1 4.88346 5.83153 2.47689 
180 1 1 6.37851 5.71417 2.3515 
277 1 1 6.36065 4.87237 3.16724 
164 1 1 8.0389 5.54355 2.41861 
199 1 1 7.31564 6.21122 2.36354 
278 1 1 7.37007 5.31854 3.1855 
103 1 1 0.77192 7.94603 2.29311 
205 1 1 1.41855 7.92017 3.14377 
184 1 1 0.0270266 7.21139 2.3166 
282 1 1 0.874932 7.08817 3.05706 
201 1 1 0.162066 7.8947 3.19789 
187 1 1 2.34332 6.47423 2.07099 
188 1 1 1.61551 7.33485 2.11877 
289 1 1 2.89567 6.48713 3.01528 
286 1 1 2.28415 7.45932 3.0444 
191 1 1 3.98931 6.6046 2.50729 
192 1 1 3.25513 7.30618 2.47565 
196 1 1 4.7101 7.52 2.59518 
194 1 1 5.63825 7.40136 1.6927 
193 1 1 4.92707 6.63637 1.64195 
195 1 1 5.65794 6.62948 2.40441 
293 1 1 4.90031 6.64588 3.19685 
101 1 1 8.01615 8.05147 1.6491 
198 1 1 7.27809 7.27975 1.63589 
200 1 1 6.50368 7.36618 2.54853 
297 1 1 6.51296 6.59767 3.16973 
302 1 1 0.763195 0.777716 4.71173 
204 1 1 0.0277384 0.760831 3.865 
305 1 1 1.54518 0.0670858 4.76393 
229 1 1 3.11454 1.57368 3.26289 
208 1 1 1.69264 0.82957 4.09401 
212 1 1 2.83616 0.810341 4.08838 
329 1 1 3.12793 1.54054 4.82278 
325 1 1 1.71183 1.55915 4.79458 
210 1 1 3.82294 0.786135 3.46231 
216 1 1 4.73302 1.04638 4.0031 
310 1 1 3.72969 0.674169 4.79805 
213 1 1 4.76126 0.0225983 3.39344 
313 1 1 4.69074 0.150435 4.81848 
214 1 1 5.61677 0.865225 3.25063 
217 1 1 6.38583 0.12839 3.2618 
215 1 1 5.79716 0.113134 4.12004 
218 1 1 7.20817 0.864574 3.29502 
220 1 1 6.48939 0.842374 4.04805 
219 1 1 7.34003 0.00730301 3.94071 
301 1 1 7.99859 0.128478 4.72003 
222 1 1 0.742457 2.46049 3.29506 
223 1 1 0.893311 1.63278 4.04829 
322 1 1 0.608182 2.56455 4.65347 
228 1 1 1.54539 2.44233 4.18301 
221 1 1 0.119697 1.64877 3.3618 
245 1 1 1.52829 3.14926 3.33163 
321 1 1 0.052768 1.67493 4.70626 
227 1 1 2.45536 1.70706 3.99912 
247 1 1 2.39634 3.06619 3.90103 
230 1 1 3.9964 2.32557 3.31871 
249 1 1 3.26867 3.19572 3.42067 
231 1 1 3.91026 1.66269 4.15402 
232 1 1 3.24198 2.37787 4.12128 
251 1 1 4.01319 3.21101 4.1343 
235 1 1 5.66937 1.63829 4.07367 
236 1 1 4.84534 2.40642 4.2146 
255 1 1 5.60331 3.17259 4.11753 
240 1 1 6.39341 2.48524 4.03405 
337 1 1 6.47365 1.70858 4.80838 
237 1 1 6.4859 1.62053 3.3664 
239 1 1 7.26662 1.63875 4.12671 
224 1 1 7.94732 2.48978 3.95967 
338 1 1 7.22657 2.41311 4.82234 
244 1 1 0.808306 3.98362 3.23467 
261 1 1 0.0735948 4.72956 3.29336 
243 1 1 0.720754 3.25686 3.90416 
263 1 1 1.04698 4.81582 4.11118 
345 1 1 1.37498 3.31226 4.70977 
246 1 1 2.42852 4.00871 3.31156 
248 1 1 1.73872 4.1069 3.99713 
346 1 1 2.35973 3.83484 4.80986 
267 1 1 2.44878 4.83373 4.06415 
250 1 1 3.99877 4.07259 3.32049 
252 1 1 3.29323 4.01533 4.20172 
271 1 1 3.98163 4.79938 4.1865 
256 1 1 4.80157 3.92089 4.0217 
254 1 1 5.6476 3.92127 3.3659 
353 1 1 4.8841 3.25102 4.82674 
275 1 1 5.53438 4.83944 3.84885 
354 1 1 5.59126 4.1158 4.71074 
258 1 1 7.39949 3.9835 3.33072 
357 1 1 6.5045 3.30235 4.79696 
259 1 1 7.21702 3.2895 4.06597 
260 1 1 6.50224 4.09751 4.0184 
358 1 1 8.03183 3.93624 4.11963 
279 1 1 7.22342 4.81877 4.06297 
262 1 1 0.921083 5.42333 3.29284 
362 1 1 0.994088 5.59882 4.80717 
264 1 1 0.146855 5.60734 4.06022 
283 1 1 0.832994 6.38251 3.92745 
268 1 1 1.68374 5.71123 4.07166 
266 1 1 2.33781 5.60792 3.26771 
272 1 1 3.16474 5.73976 3.91195 
366 1 1 2.3605 5.53526 4.77473 
273 1 1 4.70541 4.8638 3.26515 
393 1 1 4.83284 6.4198 4.79091 
370 1 1 3.84348 5.69036 4.65333 
276 1 1 4.89478 5.77622 3.97779 
274 1 1 5.7581 5.7858 3.25458 
280 1 1 6.37298 5.73196 4.11256 
374 1 1 5.60569 5.71073 4.80091 
378 1 1 7.18991 5.73179 4.81634 
299 1 1 7.24163 6.18694 3.82709 
381 1 1 8.05407 6.3973 4.77971 
203 1 1 0.787006 7.98665 4.02324 
288 1 1 1.53894 7.20758 3.84832 
284 1 1 0.0832646 7.28436 4.19359 
209 1 1 2.97358 8.06289 3.45072 
287 1 1 2.46981 6.50044 3.88222 
385 1 1 1.65562 6.52556 4.79062 
207 1 1 2.20823 8.07162 4.07346 
292 1 1 2.96541 7.32646 4.23577 
211 1 1 3.85878 8.01977 4.1033 
291 1 1 3.79893 6.65995 3.9684 
290 1 1 4.01577 7.3684 3.35505 
296 1 1 4.8175 7.29329 4.08121 
390 1 1 3.96234 7.19916 4.79074 
295 1 1 5.59131 6.52461 4.0558 
294 1 1 5.65731 7.41286 3.236 
300 1 1 6.37044 7.39706 3.9866 
394 1 1 5.58833 7.4461 4.80394 
397 1 1 6.42317 6.47203 4.72697 
298 1 1 7.3878 7.21984 3.3218 
398 1 1 7.25315 7.25592 4.79637 
304 1 1 0.0205463 0.959462 5.57542 
402 1 1 0.754849 0.874456 6.36143 
308 1 1 1.50455 0.740571 5.61422 
303 1 1 0.702165 0.0200696 5.73348 
405 1 1 1.76124 0.14316 6.39415 
306 1 1 2.48718 0.59451 5.00011 
312 1 1 3.11885 0.994367 5.72451 
406 1 1 2.34003 0.979556 6.43428 
331 1 1 4.28174 1.49118 5.75079 
333 1 1 4.94989 1.50011 5.01375 
316 1 1 5.03441 0.792946 5.83608 
314 1 1 5.73378 0.700427 4.99255 
414 1 1 5.84638 0.513628 6.45101 
335 1 1 5.84343 1.47614 5.68124 
320 1 1 6.69828 0.677987 5.68206 
318 1 1 7.3181 0.895286 4.9176 
437 1 1 6.52707 1.6084 6.4361 
323 1 1 0.751331 1.68301 5.60268 
328 1 1 1.46551 2.31813 5.82979 
327 1 1 2.29203 1.73583 5.59463 
326 1 1 2.22661 2.44764 4.93453 
426 1 1 2.49714 2.34118 6.42803 
347 1 1 2.40296 3.13882 5.73836 
349 1 1 3.32206 3.1336 4.94764 
330 1 1 4.06147 2.26658 4.96182 
332 1 1 3.27057 2.34476 5.75056 
430 1 1 4.15462 2.40589 6.43903 
351 1 1 4.03808 3.17103 5.62159 
453 1 1 4.83778 3.17794 6.40631 
334 1 1 5.61323 2.39517 4.87098 
336 1 1 5.07529 2.26547 5.7549 
340 1 1 6.46758 2.55989 5.52087 
324 1 1 8.06085 2.49725 5.60322 
339 1 1 7.25692 1.69689 5.6827 
438 1 1 7.36157 2.35287 6.43289 
342 1 1 0.856192 4.02831 5.00384 
361 1 1 0.117482 4.77385 4.84841 
343 1 1 0.928727 3.24522 5.78707 
442 1 1 0.762925 3.99611 6.44481 
344 1 1 0.0807111 4.09774 5.69593 
369 1 1 3.12163 4.78472 4.90208 
365 1 1 1.71729 4.63326 4.93074 
348 1 1 1.68563 3.98193 5.68 
367 1 1 2.44055 4.74593 5.7772 
350 1 1 3.96642 4.13648 4.97924 
352 1 1 3.25044 3.995 5.79525 
450 1 1 4.13169 3.97516 6.4135 
473 1 1 4.73725 4.79764 6.45589 
356 1 1 4.90419 4.05201 5.51595 
355 1 1 5.69226 3.26098 5.56292 
454 1 1 5.60148 4.0239 6.36083 
341 1 1 7.95835 3.23807 4.92429 
457 1 1 6.6154 3.26707 6.43958 
360 1 1 6.46839 4.04637 5.66163 
379 1 1 7.36408 4.13432 4.97779 
359 1 1 7.19178 3.33409 5.60765 
458 1 1 7.36016 4.15935 6.31233 
441 1 1 8.03228 3.27217 6.44357 
363 1 1 0.934841 4.95409 5.69753 
368 1 1 1.56137 5.6978 5.78336 
383 1 1 0.6284 6.41952 5.71977 
387 1 1 2.36512 6.29981 5.60997 
372 1 1 3.22899 5.59522 5.62884 
466 1 1 2.36741 5.49197 6.43608 
469 1 1 3.22233 5.00007 6.43473 
389 1 1 3.25274 6.41241 5.01144 
371 1 1 3.98007 4.90656 5.68078 
373 1 1 4.83714 4.96587 4.85644 
470 1 1 4.01273 5.67057 6.43147 
376 1 1 4.63117 5.69807 5.61561 
375 1 1 5.42571 4.9577 5.67782 
380 1 1 6.38605 5.55152 5.70316 
377 1 1 6.21967 4.94299 4.91886 
477 1 1 6.35918 4.93844 6.38517 
461 1 1 8.06479 5.03015 6.29482 
364 1 1 7.89086 5.69204 5.47745 
478 1 1 7.15008 4.90478 5.52157 
399 1 1 7.24867 6.39243 5.6821 
499 1 1 7.20608 5.56324 6.36435 
382 1 1 0.905489 7.36647 4.892 
384 1 1 0.0525886 7.19543 5.50986 
386 1 1 2.31819 7.31816 5.14849 
388 1 1 1.65603 7.16946 5.93125 
307 1 1 2.6006 8.04855 5.84949 
309 1 1 3.27426 7.80371 5.04592 
392 1 1 3.25454 7.25259 5.93481 
311 1 1 4.1247 8.05247 5.65805 
391 1 1 3.96421 6.5239 5.78529 
396 1 1 4.82234 7.16723 5.6177 
413 1 1 5.01559 7.94463 6.43313 
395 1 1 5.5723 6.52091 5.5647 
315 1 1 5.75819 7.88166 5.63167 
494 1 1 5.7925 7.15397 6.45128 
493 1 1 4.90189 6.49337 6.42748 
317 1 1 6.57092 8.06302 4.92776 
319 1 1 7.46787 7.99 5.57906 
400 1 1 6.52897 7.24118 5.81723 
425 1 1 1.49415 1.54816 6.48874 
408 1 1 1.5789 0.688246 7.25819 
423 1 1 0.644094 1.37649 7.31414 
403 1 1 0.691322 0.0304968 7.24309 
6 1 1 2.32967 0.802878 7.89937 
9 1 1 3.16541 0.102426 7.94478 
407 1 1 2.4762 0.0381122 7.2368 
410 1 1 4.27524 0.752247 6.56537 
429 1 1 3.37879 1.56545 6.55547 
412 1 1 3.50076 0.923822 7.36895 
411 1 1 4.25043 0.0428511 7.34296 
431 1 1 4.32217 1.55263 7.34013 
409 1 1 3.38069 0.223486 6.53567 
416 1 1 5.14635 0.698887 7.29609 
435 1 1 5.71445 1.55615 7.23597 
433 1 1 4.97525 1.5523 6.53876 
421 1 1 8.0263 1.575 6.56549 
418 1 1 7.21296 0.813548 6.51989 
404 1 1 7.97895 0.716785 7.23046 
420 1 1 6.46785 0.9369 7.33346 
419 1 1 7.15491 0.0205261 7.31584 
25 1 1 1.56899 1.77337 8.00889 
422 1 1 0.760061 2.57382 6.59357 
22 1 1 0.777419 2.47306 7.97808 
445 1 1 1.62728 3.07837 6.46876 
427 1 1 2.43941 1.68272 7.28109 
26 1 1 2.47518 2.40624 8.02588 
449 1 1 3.14003 3.1513 6.60609 
428 1 1 1.66346 2.39646 7.23109 
447 1 1 2.47062 3.16159 7.29053 
432 1 1 3.32703 2.29268 7.26754 
49 1 1 3.29978 3.14948 7.9835 
34 1 1 5.63798 2.51057 7.99385 
434 1 1 5.85415 2.32458 6.51124 
436 1 1 4.86807 2.41308 7.18952 
53 1 1 4.85748 3.11469 7.92364 
424 1 1 8.00072 2.605 7.20254 
440 1 1 6.50786 2.64651 7.19021 
38 1 1 7.22377 2.56764 8.02002 
439 1 1 7.19187 1.80512 7.29793 
41 1 1 0.0277104 3.37621 7.90679 
443 1 1 0.888225 3.32377 7.23971 
444 1 1 0.00874217 4.19829 7.28411 
465 1 1 1.66048 4.63164 6.55649 
46 1 1 2.59941 3.93838 8.0662 
446 1 1 2.30681 3.88502 6.60117 
448 1 1 1.68563 4.10968 7.4002 
452 1 1 3.19613 4.07663 7.14052 
69 1 1 3.37189 4.77596 8.04229 
50 1 1 4.24556 3.94811 8.0738 
451 1 1 4.0308 3.38375 7.31406 
471 1 1 4.00041 4.74326 7.20258 
77 1 1 6.25794 4.68344 7.90409 
455 1 1 5.6087 3.291 7.12556 
456 1 1 4.95782 3.98565 7.30543 
460 1 1 6.35339 4.02121 7.16061 
459 1 1 7.2189 3.49983 7.33358 
479 1 1 7.08389 4.72939 7.27447 
81 1 1 0.0391204 6.29283 8.02171 
463 1 1 0.866919 4.87104 7.43052 
462 1 1 0.883366 5.53273 6.59137 
483 1 1 0.758039 6.45458 7.33562 
467 1 1 2.49309 4.8697 7.24709 
485 1 1 1.87007 6.33483 6.54429 
468 1 1 1.65999 5.6842 7.33234 
489 1 1 3.08755 6.21402 6.47463 
487 1 1 2.61606 6.36581 7.46202 
73 1 1 4.76606 4.89928 7.89864 
472 1 1 3.37018 5.66283 7.47742 
476 1 1 4.76651 5.62634 7.25148 
74 1 1 5.50326 5.60003 8.01532 
497 1 1 6.43436 6.29868 6.5939 
475 1 1 5.60946 4.8607 7.16621 
474 1 1 5.49669 5.67368 6.47287 
495 1 1 5.63486 6.43995 7.27843 
480 1 1 6.35098 5.52175 7.34076 
481 1 1 7.93861 6.44118 6.63318 
61 1 1 8.03266 4.90371 8.0045 
464 1 1 7.92243 5.48312 7.19368 
79 1 1 7.14348 5.4726 8.02976 
78 1 1 7.22688 6.33114 7.40979 
482 1 1 0.631917 7.23659 6.53541 
86 1 1 2.47447 7.32845 8.04501 
486 1 1 2.52068 7.29274 6.6026 
488 1 1 1.62105 7.23621 7.20856 
90 1 1 4.16736 7.31558 8.02214 
490 1 1 4.04244 7.30991 6.56475 
492 1 1 3.4509 7.40118 7.29899 
491 1 1 4.00778 6.46232 7.28098 
415 1 1 5.78012 7.93001 7.1973 
496 1 1 5.01154 7.21453 7.29723 
500 1 1 6.43647 7.1863 7.37582 
417 1 1 6.5606 7.89947 6.51032 
401 1 1 7.97183 7.95239 6.57158 
484 1 1 8.04878 7.19726 7.39977 
498 1 1 7.2649 7.13941 6.73754 
