ITEM: TIMESTEP
16000
ITEM: NUMBER OF ATOMS
500
ITEM: BOX BOUNDS pp pp pp
0 8.07388
0 8.07388
0 8.07388
ITEM: ATOMS id type mass x y z 
8 1 1 1.60703 1.01824 0.818425 
102 1 1 0.884655 0.767183 1.49937 
121 1 1 0.191894 1.46758 1.49764 
23 1 1 0.73516 1.60061 0.578385 
5 1 1 1.6029 0.060999 0.143301 
27 1 1 2.53198 1.43102 0.803713 
7 1 1 2.54593 0.192858 0.864069 
105 1 1 1.64132 0.0244208 1.56552 
12 1 1 3.454 0.936823 0.929239 
11 1 1 4.04917 0.0462809 0.684715 
16 1 1 4.72401 0.88379 0.903455 
113 1 1 4.82558 0.0368923 1.59952 
29 1 1 3.41143 1.59983 0.170544 
20 1 1 6.35782 0.879973 0.863023 
15 1 1 5.61275 0.191258 0.837639 
4 1 1 8.0558 0.71724 0.794957 
18 1 1 7.1646 0.712985 0.0606016 
39 1 1 7.43659 1.54247 0.819815 
101 1 1 7.93664 0.0536681 1.61038 
24 1 1 0.0702579 2.39347 0.886211 
43 1 1 0.881782 3.07446 0.887816 
45 1 1 1.52985 3.16315 0.015026 
28 1 1 1.71913 2.4761 0.827989 
32 1 1 3.22213 2.38772 0.893496 
47 1 1 2.66958 3.16939 0.79312 
31 1 1 4.03465 1.76957 0.961749 
30 1 1 4.08106 2.48243 0.0866061 
130 1 1 4.10685 2.58794 1.60984 
149 1 1 3.32452 3.18239 1.5704 
35 1 1 5.69957 1.73127 0.766142 
36 1 1 4.90134 2.51977 0.891181 
134 1 1 5.68188 2.33194 1.5706 
34 1 1 5.83779 2.44115 0.0485861 
55 1 1 5.63093 3.16697 0.706013 
37 1 1 6.57269 1.64907 0.0103289 
40 1 1 6.58661 2.46762 0.755001 
38 1 1 7.40836 2.31218 0.0423336 
138 1 1 7.33762 2.37569 1.54057 
142 1 1 1.02658 4.01033 1.59564 
44 1 1 0.000691598 4.09865 1.04237 
63 1 1 0.846449 4.78276 0.734454 
48 1 1 1.64005 4.0616 0.747321 
145 1 1 1.76487 3.28997 1.55893 
67 1 1 2.59118 4.76837 0.684721 
65 1 1 1.62653 4.82665 0.0768547 
165 1 1 1.76781 4.82182 1.54963 
51 1 1 4.06674 3.33232 0.727423 
52 1 1 3.31869 4.01696 0.731712 
56 1 1 4.76369 4.17721 0.726358 
150 1 1 4.0651 4.01913 1.51785 
169 1 1 3.30474 4.74767 1.52277 
75 1 1 5.54544 4.72544 0.727896 
59 1 1 7.29389 3.23031 1.0569 
61 1 1 8.00101 4.69813 0.162167 
60 1 1 6.50467 3.95368 1.06461 
58 1 1 7.17852 4.03616 0.131262 
57 1 1 6.541 3.23112 0.115548 
41 1 1 8.02764 3.28085 0.0586745 
64 1 1 0.0620004 5.51735 0.795242 
81 1 1 0.0404581 6.38435 0.367651 
162 1 1 0.811427 5.77622 1.56062 
68 1 1 1.73004 5.7363 0.973967 
66 1 1 2.22498 5.64535 0.131763 
72 1 1 3.06439 5.61224 0.778939 
87 1 1 2.47624 6.43239 0.935102 
71 1 1 4.01639 4.89017 0.790408 
70 1 1 4.05295 5.67666 0.0638978 
76 1 1 4.80169 5.55996 1.05301 
89 1 1 3.23083 6.41432 0.191467 
91 1 1 4.10063 6.33748 0.970229 
80 1 1 6.13424 5.66124 0.866176 
74 1 1 5.42657 5.542 0.0189324 
97 1 1 6.26967 6.36336 0.197699 
161 1 1 7.35993 4.93202 0.895889 
79 1 1 7.31059 5.69908 0.165388 
99 1 1 7.10807 6.32805 0.919005 
1 1 1 0.086155 7.9695 0.0174785 
83 1 1 1.00031 6.51122 0.792956 
3 1 1 0.797916 7.98075 0.891367 
82 1 1 0.930518 7.26458 0.128945 
181 1 1 0.146063 6.47266 1.38968 
88 1 1 1.65466 7.18311 1.02063 
92 1 1 3.13745 7.39739 0.807032 
86 1 1 2.38448 7.38234 0.0790985 
90 1 1 4.05699 7.18647 0.0625991 
96 1 1 4.77746 7.25344 0.864057 
95 1 1 5.58422 6.46906 0.998334 
100 1 1 6.30917 7.24021 0.941045 
94 1 1 5.80787 7.47081 0.139598 
93 1 1 4.99475 6.5706 0.163156 
17 1 1 6.62003 8.00158 0.00533038 
84 1 1 7.98978 7.36454 0.928715 
19 1 1 7.15127 8.04237 0.945206 
98 1 1 7.29771 7.18887 0.105371 
202 1 1 0.813867 0.835752 3.21626 
104 1 1 0.00487403 0.777688 2.41093 
123 1 1 0.685245 1.5499 2.42264 
108 1 1 1.56282 1.01967 2.43857 
103 1 1 0.774877 0.151122 2.32197 
109 1 1 3.11962 0.0518835 1.80865 
106 1 1 2.40381 0.854458 1.64957 
209 1 1 3.11477 0.000665152 3.11913 
110 1 1 3.98329 0.832481 1.70322 
112 1 1 3.30236 0.9249 2.57696 
116 1 1 4.83789 0.792726 2.28656 
111 1 1 3.99279 0.0356174 2.37417 
210 1 1 4.20888 0.959246 3.20208 
114 1 1 5.63835 0.904778 1.61717 
115 1 1 5.57926 0.0890977 2.37364 
214 1 1 5.69145 0.901263 3.1977 
237 1 1 6.39326 1.60766 3.16788 
213 1 1 4.86434 0.0327999 3.12468 
120 1 1 6.47101 0.828242 2.5283 
118 1 1 7.15094 0.784784 1.62388 
139 1 1 7.44892 1.58553 2.28131 
218 1 1 7.43815 0.791898 3.17155 
122 1 1 0.940097 2.4268 1.64995 
245 1 1 1.57653 3.18072 3.21871 
125 1 1 1.69786 1.72847 1.66125 
126 1 1 2.54151 2.59594 1.61713 
128 1 1 1.71342 2.52764 2.42162 
127 1 1 2.40976 1.75216 2.50445 
129 1 1 3.25355 1.6266 1.82542 
132 1 1 3.3104 2.5189 2.42053 
131 1 1 4.05979 1.82003 2.52281 
151 1 1 4.12555 3.22185 2.41591 
133 1 1 4.83423 1.62439 1.66119 
157 1 1 6.43466 3.05117 1.66762 
135 1 1 5.44334 1.65534 2.45705 
136 1 1 4.86615 2.43958 2.38324 
155 1 1 5.64205 3.19028 2.53858 
137 1 1 6.54666 1.74813 1.7113 
124 1 1 8.05255 2.54333 2.33831 
140 1 1 6.50504 2.47919 2.60838 
238 1 1 7.42726 2.40165 3.1199 
141 1 1 0.300251 3.25863 1.67529 
143 1 1 0.891044 3.25851 2.52709 
144 1 1 0.173386 4.04403 2.41671 
241 1 1 0.0630939 3.47819 3.20748 
147 1 1 2.55072 3.28043 2.36857 
249 1 1 3.17998 3.28845 3.19351 
146 1 1 2.51404 4.01285 1.64685 
148 1 1 1.70053 4.04659 2.41236 
173 1 1 4.78343 4.71243 1.69055 
152 1 1 3.28517 4.08243 2.38013 
171 1 1 4.0948 4.80949 2.6431 
250 1 1 4.27554 3.9709 3.19497 
153 1 1 4.86337 3.30771 1.6424 
154 1 1 5.6613 3.99084 1.78516 
156 1 1 4.94326 4.07182 2.49438 
254 1 1 5.89845 3.95862 3.13424 
175 1 1 5.83565 4.79757 2.52146 
158 1 1 7.27412 4.24072 1.70354 
159 1 1 7.32712 3.27831 2.18598 
160 1 1 6.51662 3.90186 2.37122 
258 1 1 7.32765 4.11362 2.90498 
163 1 1 0.0923415 4.97109 1.74624 
242 1 1 0.860941 4.93373 2.44709 
262 1 1 0.706432 5.7357 3.08184 
168 1 1 1.5771 5.69949 2.30725 
261 1 1 0.016204 5.01576 3.05712 
189 1 1 3.16623 6.43927 1.76111 
167 1 1 2.56507 4.85273 2.49235 
166 1 1 2.54139 5.60516 1.68659 
266 1 1 2.3628 5.67692 3.185 
172 1 1 3.32404 5.63028 2.55166 
170 1 1 3.99954 5.51363 1.67812 
176 1 1 4.67813 5.62379 2.44465 
177 1 1 6.39476 4.91186 1.66569 
174 1 1 5.53097 5.6433 1.88685 
197 1 1 6.30267 6.39764 1.74669 
179 1 1 7.30007 5.04048 2.38053 
180 1 1 6.48996 5.74979 2.57126 
178 1 1 7.25922 5.70034 1.65588 
164 1 1 7.97305 5.7402 2.33698 
183 1 1 0.796424 6.51373 2.31846 
285 1 1 1.52833 6.46933 3.11537 
182 1 1 0.786922 7.30155 1.64143 
188 1 1 1.56934 7.28873 2.55815 
184 1 1 0.0192766 7.29142 2.36972 
201 1 1 0.00695733 8.06748 3.01913 
185 1 1 1.61636 6.48608 1.73263 
186 1 1 2.41021 7.19981 1.81813 
107 1 1 2.30497 8.05367 2.43144 
187 1 1 2.41575 6.54886 2.5757 
193 1 1 4.69288 6.55408 1.7744 
191 1 1 4.1028 6.47049 2.72409 
192 1 1 3.28339 7.24414 2.5091 
190 1 1 3.9709 7.30373 1.6695 
196 1 1 4.82928 7.28354 2.45929 
290 1 1 4.00442 7.43309 3.1899 
195 1 1 5.58693 6.52258 2.43357 
194 1 1 5.59951 7.31887 1.71194 
200 1 1 6.36715 7.24881 2.4618 
297 1 1 6.42015 6.52034 3.18951 
119 1 1 7.26332 7.96356 2.39071 
281 1 1 8.07072 6.50709 3.1923 
199 1 1 7.21943 6.57629 2.52664 
117 1 1 6.48827 7.95029 1.70785 
198 1 1 7.27147 7.16104 1.67299 
298 1 1 7.38162 7.29614 3.20632 
208 1 1 1.47066 0.751992 4.12499 
203 1 1 0.579231 0.148361 4.10766 
206 1 1 2.41972 0.854003 3.23538 
212 1 1 3.18234 0.635822 3.99803 
207 1 1 2.33531 0.0672676 4.04788 
211 1 1 4.05234 0.0498989 3.98938 
231 1 1 4.02627 1.50804 4.13283 
310 1 1 3.93791 0.669264 4.75872 
216 1 1 5.09841 0.806818 3.97695 
314 1 1 5.81618 0.882237 4.75341 
235 1 1 5.86083 1.49931 4.00792 
215 1 1 5.66644 0.0121554 4.11497 
313 1 1 4.84913 0.0824358 4.81442 
217 1 1 6.64352 0.0361012 3.26569 
204 1 1 7.93987 0.864254 4.02868 
220 1 1 6.69965 0.800635 4.01542 
221 1 1 0.0610715 1.65259 3.39481 
225 1 1 1.50629 1.76914 3.31779 
223 1 1 0.739958 1.88112 4.20761 
222 1 1 0.719738 2.5755 3.30779 
228 1 1 1.51338 2.57097 4.11139 
227 1 1 2.31565 1.6436 4.06556 
226 1 1 2.41273 2.44876 3.31846 
232 1 1 3.19147 2.4433 4.11403 
326 1 1 2.32783 2.52362 4.78978 
233 1 1 4.80771 1.70316 3.2687 
229 1 1 3.32555 1.66718 3.47432 
230 1 1 4.04049 2.62151 3.24598 
236 1 1 4.77603 2.32281 4.16728 
234 1 1 5.60272 2.36345 3.34297 
253 1 1 4.97506 3.16061 3.29107 
255 1 1 5.62056 3.05464 4.19219 
239 1 1 7.34392 1.62746 4.13176 
224 1 1 8.02126 2.50067 4.07967 
240 1 1 6.56075 2.25004 4.01674 
257 1 1 6.55689 3.08825 3.3325 
244 1 1 1.01127 4.14957 3.34101 
243 1 1 0.801837 3.38637 4.16862 
247 1 1 2.30871 3.27677 4.05957 
248 1 1 1.63364 4.01764 4.13064 
365 1 1 1.6622 4.79564 4.80163 
246 1 1 2.21535 3.99207 3.30259 
267 1 1 2.31881 4.71398 3.98752 
369 1 1 2.95094 4.71084 4.78829 
269 1 1 3.16652 4.61298 3.30784 
251 1 1 4.10811 3.28481 4.2983 
252 1 1 3.26349 3.87772 4.0481 
271 1 1 4.01503 4.64808 4.07173 
273 1 1 4.90377 4.83168 3.24307 
256 1 1 4.84808 3.91575 4.09213 
275 1 1 5.81279 4.80333 4.08839 
373 1 1 4.89327 4.74546 4.74742 
354 1 1 5.57779 3.88195 4.80744 
357 1 1 6.46297 3.25746 4.72013 
259 1 1 7.36541 3.31943 3.9756 
358 1 1 7.97807 4.25498 3.81964 
260 1 1 6.55316 3.98847 3.93641 
341 1 1 8.01392 3.39591 4.79178 
263 1 1 0.807945 4.94114 4.0131 
362 1 1 0.881677 5.6574 4.79648 
283 1 1 0.735559 6.45864 3.98708 
268 1 1 1.53506 5.77766 3.84542 
385 1 1 1.49135 6.42369 4.70851 
265 1 1 1.6591 4.96184 3.24957 
272 1 1 3.10209 5.30902 4.01253 
287 1 1 2.39171 6.43449 3.81757 
366 1 1 2.24722 5.70849 4.63901 
389 1 1 3.07203 6.3494 4.78551 
289 1 1 3.25761 6.31242 3.29561 
270 1 1 4.13683 5.55053 3.38244 
370 1 1 4.03086 5.45769 4.7632 
274 1 1 5.69088 5.60769 3.24452 
276 1 1 4.95787 5.51445 4.0286 
295 1 1 5.82891 6.35958 4.05334 
393 1 1 4.88547 6.43062 4.69233 
277 1 1 6.59815 4.84771 3.23587 
278 1 1 7.23692 5.65919 3.3123 
279 1 1 7.24013 4.89327 4.065 
280 1 1 6.554 5.68012 4.12619 
264 1 1 8.04348 5.62553 3.98365 
361 1 1 8.04203 4.90867 4.77452 
282 1 1 0.688935 7.30499 3.30778 
288 1 1 1.46565 7.24245 3.98383 
205 1 1 1.45162 8.02519 3.26558 
286 1 1 2.34125 7.45876 3.28084 
292 1 1 3.04551 7.37593 3.88622 
291 1 1 4.10982 6.49767 3.91773 
390 1 1 3.90146 7.17665 4.61485 
294 1 1 5.75398 7.38131 3.28354 
293 1 1 5.09837 6.48833 3.3145 
296 1 1 4.85759 7.34381 4.03156 
317 1 1 6.41978 8.01475 4.83094 
394 1 1 5.61063 7.12782 4.83092 
299 1 1 7.33343 6.49765 3.8917 
284 1 1 8.06525 7.32048 4.13032 
300 1 1 6.49127 7.35192 4.06085 
397 1 1 6.47718 6.67532 4.7081 
219 1 1 7.32804 7.95719 4.20233 
302 1 1 0.663469 0.814391 4.9735 
304 1 1 0.00654666 0.644376 5.81547 
325 1 1 1.4246 1.58114 4.91062 
323 1 1 0.792984 1.39896 5.81432 
309 1 1 3.04088 0.0432339 4.85197 
308 1 1 1.67569 0.631095 5.67732 
306 1 1 2.34621 0.912275 4.91663 
406 1 1 2.45259 0.768109 6.35542 
327 1 1 2.3216 1.61022 5.66271 
312 1 1 3.24162 0.747418 5.63011 
410 1 1 4.26712 0.870623 6.09679 
333 1 1 4.97271 1.60176 4.89687 
316 1 1 5.09951 0.726268 5.49371 
417 1 1 6.44895 0.0838486 6.40819 
414 1 1 5.71881 0.720876 6.40094 
337 1 1 6.70573 1.42946 4.87968 
320 1 1 6.49038 0.676293 5.58154 
318 1 1 7.44732 0.784323 5.02082 
421 1 1 8.06809 1.48996 6.41481 
321 1 1 0.00479236 1.77013 4.89384 
322 1 1 0.821524 2.38486 5.05281 
324 1 1 0.0631773 2.49946 5.64788 
328 1 1 1.57714 2.54698 5.67309 
425 1 1 1.57626 1.64035 6.39639 
349 1 1 3.2198 3.17992 4.97232 
329 1 1 3.04138 1.79137 4.99247 
429 1 1 3.05918 1.69145 6.36402 
332 1 1 3.11102 2.48695 5.68812 
426 1 1 2.27426 2.47801 6.34239 
331 1 1 3.88857 1.75527 5.76368 
330 1 1 3.95753 2.40159 4.84954 
351 1 1 3.97567 3.13147 5.67212 
353 1 1 4.83142 3.15229 4.95652 
449 1 1 3.26341 3.2254 6.42236 
334 1 1 5.93888 2.30901 4.90988 
336 1 1 4.85083 2.38225 5.6479 
335 1 1 5.71161 1.66085 5.78922 
434 1 1 5.78796 2.44563 6.42342 
453 1 1 4.91312 3.07228 6.27359 
355 1 1 5.68556 3.06575 5.65665 
339 1 1 7.29859 1.73471 5.77843 
340 1 1 6.63424 2.55539 5.70575 
338 1 1 7.24561 2.42159 4.87829 
342 1 1 0.820143 4.15309 4.8855 
345 1 1 1.5036 3.24661 4.99584 
343 1 1 0.620062 3.32553 5.53248 
442 1 1 0.789522 4.07964 6.33103 
445 1 1 1.46455 3.26886 6.38466 
346 1 1 2.39872 3.82775 4.90782 
347 1 1 2.48598 3.34764 5.78553 
348 1 1 1.65242 4.0357 5.63333 
352 1 1 3.10677 4.1206 5.75882 
350 1 1 3.91669 4.14762 4.98217 
371 1 1 3.84684 4.83656 5.78104 
356 1 1 4.8186 4.02331 5.49075 
454 1 1 5.64585 3.99642 6.30663 
477 1 1 6.3721 4.77514 6.25954 
375 1 1 5.54133 4.73417 5.60088 
377 1 1 6.38617 4.82004 5.04461 
359 1 1 7.32536 3.23866 5.60168 
344 1 1 8.00806 4.18719 5.51447 
360 1 1 6.56377 3.952 5.5503 
379 1 1 7.29559 4.14887 4.87518 
461 1 1 8.07225 4.81028 6.37506 
458 1 1 7.34681 4.06535 6.31703 
381 1 1 0.170892 6.34808 4.88077 
363 1 1 0.99988 4.88504 5.61311 
364 1 1 0.0714981 5.52754 5.66771 
383 1 1 0.832665 6.43388 5.6823 
367 1 1 2.50939 4.916 5.81322 
368 1 1 1.69641 5.66632 5.48239 
372 1 1 3.21547 5.62879 5.71132 
376 1 1 4.68459 5.41005 5.61208 
470 1 1 4.05242 5.67393 6.3833 
391 1 1 4.16237 6.43243 5.56535 
374 1 1 5.63258 5.61377 4.84651 
474 1 1 5.58775 5.47169 6.34708 
395 1 1 5.41111 6.42848 5.65738 
380 1 1 6.44224 5.70995 5.55843 
497 1 1 6.34584 6.27089 6.449 
378 1 1 7.30001 5.78227 4.8947 
478 1 1 7.24162 5.00261 5.58849 
399 1 1 7.18823 6.3561 5.68423 
499 1 1 7.21435 5.54453 6.43514 
382 1 1 0.767113 7.20442 4.86646 
305 1 1 1.53185 8.02528 4.87997 
303 1 1 0.836832 7.97947 5.85174 
301 1 1 0.0192091 7.98294 4.98722 
307 1 1 2.44742 7.97595 5.73063 
387 1 1 2.46 6.50102 5.75816 
386 1 1 2.32474 7.24084 4.89411 
388 1 1 1.62064 7.24076 5.68331 
486 1 1 2.64424 7.1682 6.45399 
405 1 1 1.61693 7.95392 6.44042 
493 1 1 4.78401 6.75014 6.4015 
392 1 1 3.24383 7.10508 5.49465 
311 1 1 4.15036 8.02424 5.53883 
396 1 1 4.7512 7.2157 5.29974 
413 1 1 4.83043 8.02105 6.36254 
490 1 1 3.9528 7.35067 6.35563 
315 1 1 5.69689 7.8576 5.69875 
400 1 1 6.30288 7.03333 5.74141 
398 1 1 7.46984 7.01845 4.88864 
319 1 1 7.18155 7.7286 5.53498 
384 1 1 8.00406 6.99225 5.8301 
401 1 1 7.96417 7.8746 6.39855 
498 1 1 7.1152 7.03976 6.42335 
2 1 1 0.780576 0.638315 8.0215 
402 1 1 0.831446 0.650706 6.64372 
408 1 1 1.50488 0.993995 7.34614 
6 1 1 2.36768 1.00995 7.97931 
9 1 1 3.19756 0.196164 8.03537 
412 1 1 3.10098 0.872405 7.17304 
427 1 1 2.31982 1.61131 7.18072 
10 1 1 4.29783 0.778904 7.98509 
431 1 1 3.94711 1.41044 7.11144 
13 1 1 5.02586 0.0635274 8.03135 
416 1 1 4.98988 0.839748 7.07511 
14 1 1 5.66395 0.952976 7.97976 
21 1 1 8.02574 1.40065 8.06848 
418 1 1 7.22138 0.974698 6.49885 
420 1 1 6.49292 0.792692 7.30917 
404 1 1 7.9389 0.47565 7.25804 
22 1 1 0.764036 2.41399 8.06284 
422 1 1 0.773127 2.53819 6.48446 
423 1 1 0.661234 1.76539 7.26997 
428 1 1 1.52881 2.54594 7.27064 
424 1 1 0.041877 2.55794 7.33589 
25 1 1 1.629 1.79657 8.05815 
26 1 1 2.56534 2.32614 8.05869 
432 1 1 3.18702 2.15024 7.36454 
447 1 1 2.28067 3.17349 7.20745 
430 1 1 3.88682 2.44647 6.60232 
451 1 1 4.04549 3.14045 7.25525 
33 1 1 4.76841 1.61893 8.01947 
53 1 1 4.94151 3.19663 8.03526 
433 1 1 4.89541 1.6984 6.59509 
435 1 1 5.67339 1.76302 7.32561 
436 1 1 4.86679 2.40988 7.28613 
437 1 1 6.50578 1.65486 6.52758 
438 1 1 7.28306 2.5023 6.52507 
441 1 1 8.05834 3.17154 6.54343 
440 1 1 6.56461 2.54184 7.27224 
439 1 1 7.35654 1.64073 7.33102 
42 1 1 0.875866 4.02139 8.0652 
443 1 1 0.727355 3.32734 7.17888 
448 1 1 1.56784 4.03952 7.29474 
444 1 1 0.00963519 4.0052 7.28945 
463 1 1 0.701111 4.77269 7.3327 
49 1 1 3.16925 3.24954 7.96907 
446 1 1 2.30099 4.15485 6.47762 
46 1 1 2.25337 4.07187 8.00151 
452 1 1 2.98708 4.10528 7.22123 
50 1 1 4.0648 3.93643 7.97392 
73 1 1 4.83744 4.74476 7.87021 
450 1 1 3.90715 4.16809 6.64169 
473 1 1 4.67112 4.83558 6.46523 
456 1 1 4.82001 3.82628 7.05974 
69 1 1 3.34702 4.70795 8.03671 
77 1 1 6.36548 4.66482 8.02605 
457 1 1 6.45886 3.23217 6.46651 
54 1 1 5.57875 4.04492 7.93847 
455 1 1 5.64999 3.30557 7.15709 
475 1 1 5.69476 4.752 7.07375 
460 1 1 6.44968 4.04165 7.10586 
459 1 1 7.35826 3.28545 7.35252 
62 1 1 0.819677 5.53098 8.07248 
85 1 1 1.56043 6.41389 8.03822 
462 1 1 0.728426 5.56628 6.53071 
468 1 1 1.51634 5.67029 7.24927 
465 1 1 1.66348 4.87645 6.46388 
466 1 1 2.28925 5.72535 6.52458 
469 1 1 3.20048 5.0861 6.70008 
467 1 1 2.31457 4.88052 7.3925 
472 1 1 3.02817 5.66603 7.61 
487 1 1 2.37555 6.37304 7.33991 
489 1 1 3.24232 6.27358 6.5863 
471 1 1 4.06024 5.11983 7.27652 
476 1 1 4.91012 5.94568 7.00797 
480 1 1 6.30357 5.53222 7.49728 
479 1 1 7.17345 5.00366 7.26596 
464 1 1 8.04876 5.69681 7.41754 
481 1 1 8.07301 6.32954 6.49904 
78 1 1 7.08505 6.23025 7.28352 
485 1 1 1.5775 6.53152 6.48301 
482 1 1 0.799881 7.20466 6.56338 
403 1 1 0.80188 7.9303 7.33673 
483 1 1 0.723386 6.52141 7.30198 
488 1 1 1.58487 7.22696 7.25272 
409 1 1 3.16693 8.03487 6.53255 
407 1 1 2.27351 7.97962 7.41667 
492 1 1 3.18586 7.13545 7.40356 
491 1 1 4.15456 6.57493 7.17963 
411 1 1 3.93587 7.90861 7.39089 
415 1 1 5.75022 8.03939 7.27507 
495 1 1 5.64663 6.47093 7.48468 
496 1 1 4.86191 7.25916 7.29286 
494 1 1 5.72428 7.32902 6.5165 
500 1 1 6.53131 7.201 7.25076 
419 1 1 7.169 7.95053 7.18791 
484 1 1 8.02394 7.41936 7.35273 
