ITEM: TIMESTEP
19000
ITEM: NUMBER OF ATOMS
500
ITEM: BOX BOUNDS pp pp pp
0 8.07388
0 8.07388
0 8.07388
ITEM: ATOMS id type mass x y z 
102 1 1 0.852423 0.814912 1.60227 
101 1 1 0.103861 8.0977 1.53595 
2 1 1 0.920957 0.86274 7.91095 
8 1 1 1.72229 0.839682 0.81036 
106 1 1 2.57561 0.752245 1.71836 
27 1 1 2.45294 1.65272 0.811704 
12 1 1 3.19657 0.72479 0.908126 
9 1 1 3.13104 8.01393 0.11443 
11 1 1 3.93555 8.02129 0.756781 
10 1 1 4.10338 0.749361 0.0855877 
109 1 1 3.25498 8.03023 1.75033 
129 1 1 3.28727 1.49865 1.84188 
16 1 1 4.93664 0.765925 1.17705 
15 1 1 5.48938 0.155329 0.689541 
20 1 1 6.39838 0.963644 0.726723 
114 1 1 5.76601 0.766506 1.62846 
14 1 1 5.57898 0.963811 7.93862 
17 1 1 6.32632 0.0240532 0.131762 
4 1 1 0.0886352 0.785313 0.843578 
39 1 1 7.27542 1.6441 0.773267 
118 1 1 7.21939 0.998219 1.61343 
121 1 1 0.0771968 1.65774 1.59073 
23 1 1 0.966043 1.5864 0.800864 
122 1 1 0.932741 2.30678 1.55392 
24 1 1 0.0593653 2.30016 0.721676 
22 1 1 0.995331 2.33293 0.0548648 
25 1 1 1.7143 1.58371 8.00243 
28 1 1 1.65175 2.42507 0.748198 
125 1 1 1.6824 1.62566 1.59685 
126 1 1 2.42281 2.28816 1.62616 
26 1 1 2.5575 2.4033 8.01807 
45 1 1 1.64634 3.25025 0.0976568 
32 1 1 3.15563 2.36565 0.92601 
31 1 1 4.02867 1.57708 0.952565 
30 1 1 3.99846 2.51826 0.0969051 
51 1 1 4.15303 3.16509 0.960233 
33 1 1 4.75569 1.53242 0.044782 
35 1 1 5.6017 1.74233 0.951081 
36 1 1 4.79167 2.38391 0.851276 
34 1 1 5.51327 2.49063 0.152174 
133 1 1 5.03006 1.58177 1.82302 
37 1 1 6.40868 1.77931 7.9752 
40 1 1 6.60989 2.5543 0.703204 
138 1 1 7.35355 2.46895 1.61337 
21 1 1 0.191251 1.68204 8.03852 
43 1 1 0.972466 3.17964 0.855069 
44 1 1 0.171521 3.97134 0.939883 
63 1 1 0.887069 4.7189 0.818149 
48 1 1 1.69049 3.92303 0.808628 
142 1 1 0.887311 3.95328 1.62562 
41 1 1 0.0101873 3.31166 0.162963 
47 1 1 2.45969 3.09601 0.827294 
67 1 1 2.25701 4.86153 0.721698 
52 1 1 3.33645 3.9891 0.819969 
49 1 1 3.2436 3.25701 0.165881 
56 1 1 4.85762 4.13219 1.00187 
71 1 1 4.13131 4.8986 0.864269 
153 1 1 4.73816 3.04139 1.80716 
53 1 1 4.90662 3.34687 0.110126 
55 1 1 5.66018 3.30792 0.850292 
157 1 1 6.55203 3.24166 1.57271 
54 1 1 5.70107 4.08737 0.118546 
57 1 1 6.46846 3.28898 8.04289 
141 1 1 0.205063 3.10441 1.59803 
60 1 1 6.41547 3.91678 0.847159 
59 1 1 7.38104 3.25656 0.868003 
161 1 1 7.35179 5.01264 0.834209 
162 1 1 0.775331 5.91483 1.64524 
83 1 1 0.879994 6.49459 0.777856 
81 1 1 7.97852 6.54254 0.0132747 
169 1 1 3.22062 4.78197 1.6074 
68 1 1 1.48462 5.55955 0.959519 
66 1 1 2.45992 5.73315 0.0767684 
87 1 1 2.34074 6.46881 0.945712 
166 1 1 2.44855 5.51714 1.60054 
72 1 1 3.22291 5.60027 0.781982 
69 1 1 2.97075 4.77162 0.015565 
70 1 1 3.96308 5.62953 0.0807484 
76 1 1 4.8567 5.62903 0.840253 
73 1 1 4.88671 4.85181 0.0509221 
170 1 1 3.98822 5.66997 1.82297 
75 1 1 5.53687 4.94644 0.990825 
74 1 1 5.65877 5.53385 0.130949 
80 1 1 6.50256 5.75772 0.722169 
95 1 1 5.65498 6.43697 0.813634 
64 1 1 8.0624 5.77058 0.703097 
79 1 1 7.2985 5.66867 0.0156055 
197 1 1 6.40077 6.41726 1.58889 
3 1 1 0.965207 0.0888501 0.76403 
88 1 1 1.68886 7.35251 0.766621 
84 1 1 0.0942082 7.21065 0.830416 
182 1 1 0.899394 7.39782 1.52161 
7 1 1 2.35972 -0.00577907 0.865294 
92 1 1 3.11762 7.20547 0.799805 
89 1 1 3.32661 6.42603 8.01127 
91 1 1 3.88103 6.46571 0.898027 
90 1 1 4.07328 7.17032 -0.0186276 
97 1 1 6.27007 6.3386 7.97371 
96 1 1 4.92829 7.34531 0.780181 
100 1 1 6.44914 7.02482 0.676083 
1 1 1 8.07272 8.02398 0.0928314 
19 1 1 7.22508 -0.0015809 0.848441 
99 1 1 7.32197 6.45789 0.829318 
198 1 1 7.31803 7.33166 1.71386 
105 1 1 1.72625 0.105891 1.64584 
103 1 1 0.74346 0.0676932 2.28052 
123 1 1 0.869742 1.55884 2.48614 
108 1 1 1.53222 0.770374 2.57956 
107 1 1 2.35787 8.06202 2.50146 
127 1 1 2.42064 1.49119 2.38837 
206 1 1 2.28574 0.710159 3.40969 
110 1 1 4.03733 0.757255 1.72549 
112 1 1 3.23584 0.741495 2.53553 
131 1 1 4.03383 1.50842 2.64954 
113 1 1 4.84765 8.02372 1.78678 
116 1 1 4.92002 0.821625 2.44768 
117 1 1 6.38536 7.95543 1.43537 
104 1 1 8.01332 1.0793 2.43488 
120 1 1 6.65517 0.848739 2.4873 
218 1 1 7.3975 0.734633 3.1647 
143 1 1 0.909874 3.25283 2.34387 
124 1 1 0.226641 2.49148 2.41627 
128 1 1 1.6624 2.43799 2.37243 
245 1 1 1.57767 3.21523 3.49424 
147 1 1 2.49865 3.08277 2.38777 
149 1 1 3.30337 3.17489 1.67039 
132 1 1 3.28068 2.3646 2.42478 
130 1 1 4.02417 2.2854 1.66665 
151 1 1 4.00196 3.16972 2.50241 
136 1 1 4.6747 2.41162 2.64096 
229 1 1 3.24807 1.58956 3.3132 
137 1 1 6.5076 1.73984 1.50412 
135 1 1 5.93374 1.57994 2.35407 
134 1 1 5.78428 2.5095 1.60283 
139 1 1 7.19308 1.83481 2.59437 
140 1 1 6.45643 2.55893 2.39084 
159 1 1 7.36889 3.13123 2.30947 
237 1 1 6.40286 1.63494 3.28077 
257 1 1 6.31774 3.30667 3.2496 
163 1 1 0.192979 5.05986 1.42936 
144 1 1 8.02945 4.046 2.11598 
242 1 1 0.884799 4.83488 2.3135 
261 1 1 -0.0175872 5.02083 3.14171 
145 1 1 1.63276 3.09091 1.62074 
146 1 1 2.44932 3.9568 1.46133 
148 1 1 1.65466 4.04675 2.37624 
165 1 1 1.60027 4.72397 1.59316 
167 1 1 2.46206 4.82792 2.38599 
246 1 1 2.32915 3.89125 3.10276 
150 1 1 4.03667 4.10313 1.56283 
152 1 1 3.29343 4.0273 2.30493 
250 1 1 4.08424 4.08972 3.19246 
156 1 1 4.88186 4.19722 2.62527 
155 1 1 5.58835 3.26942 2.45904 
154 1 1 5.69039 4.03617 1.62544 
160 1 1 6.55268 4.18298 2.37006 
254 1 1 5.63359 4.03718 3.17718 
253 1 1 4.83439 3.2741 3.26379 
158 1 1 7.13079 4.16506 1.49393 
179 1 1 7.35659 4.97636 2.2377 
181 1 1 0.03496 6.62157 1.66751 
164 1 1 0.00170917 5.63432 2.32525 
168 1 1 1.63032 5.58462 2.24587 
183 1 1 0.937488 6.42839 2.48906 
285 1 1 1.61217 6.48111 3.28521 
266 1 1 2.23766 5.57886 3.11232 
173 1 1 4.7726 4.83428 1.79965 
172 1 1 3.17096 5.78355 2.64646 
171 1 1 3.95038 4.82963 2.48961 
176 1 1 4.84102 5.83794 2.37731 
193 1 1 4.80824 6.43891 1.42128 
269 1 1 3.14048 4.6968 3.15221 
175 1 1 5.89429 5.00573 2.32156 
177 1 1 6.52101 5.04263 1.47456 
174 1 1 5.60633 5.76755 1.64796 
195 1 1 5.65836 6.54867 2.31505 
180 1 1 6.57975 5.73715 2.40115 
178 1 1 7.27678 5.78058 1.53499 
199 1 1 7.40099 6.48585 2.35629 
188 1 1 1.584 7.28741 2.41463 
184 1 1 0.0607906 7.20085 2.47552 
185 1 1 1.58234 6.52112 1.53901 
186 1 1 2.57132 7.22927 1.64504 
209 1 1 3.06472 0.0566856 3.30258 
187 1 1 2.31053 6.52613 2.56662 
192 1 1 3.26864 7.21773 2.47654 
286 1 1 2.47953 7.32779 3.13283 
289 1 1 3.17945 6.50727 3.43806 
111 1 1 4.05486 8.04047 2.51405 
191 1 1 4.09956 6.52209 2.39918 
189 1 1 3.16679 6.34772 1.62747 
190 1 1 3.89048 7.15397 1.65748 
115 1 1 5.63619 7.99461 2.24998 
196 1 1 4.84292 7.22181 2.44248 
194 1 1 5.65618 7.22724 1.52617 
200 1 1 6.47565 7.25763 2.38391 
119 1 1 7.4047 0.162091 2.22261 
298 1 1 7.31908 7.23458 3.22375 
217 1 1 6.57895 7.95808 3.18579 
205 1 1 1.53659 7.9214 3.25138 
202 1 1 0.68839 0.926895 3.30891 
203 1 1 0.568868 7.93593 3.91755 
208 1 1 1.42578 0.597271 4.03887 
301 1 1 7.94976 8.11048 4.90471 
225 1 1 1.55385 1.55416 3.29704 
207 1 1 2.24994 7.8508 4.02603 
212 1 1 3.3048 0.694249 4.13057 
227 1 1 2.38166 1.53501 4.13906 
309 1 1 2.9916 8.01435 4.99051 
210 1 1 4.23575 0.745433 3.48488 
310 1 1 4.04102 0.786244 5.05086 
233 1 1 4.99398 1.53596 3.37479 
231 1 1 4.25054 1.7332 3.96668 
216 1 1 5.03895 0.714021 4.07713 
214 1 1 5.8501 0.712993 3.0604 
215 1 1 5.80351 0.0404568 3.80133 
213 1 1 4.9645 8.10256 3.12108 
204 1 1 7.98256 0.902469 4.03295 
220 1 1 6.68065 0.788311 3.92455 
219 1 1 7.35634 7.94624 3.93182 
223 1 1 0.705676 1.65829 4.07191 
222 1 1 0.929983 2.51421 3.28549 
243 1 1 0.656042 3.27243 4.01653 
241 1 1 8.05123 3.24317 3.13205 
226 1 1 2.37 2.49326 3.23005 
228 1 1 1.70135 2.45347 4.15678 
247 1 1 2.51699 3.28778 4.08386 
232 1 1 3.13813 2.37893 4.20892 
230 1 1 3.9959 2.44662 3.29968 
251 1 1 4.05047 3.23815 4.11041 
330 1 1 3.9681 2.30781 4.83656 
235 1 1 5.77626 1.7531 4.13412 
236 1 1 4.93546 2.61016 4.19474 
234 1 1 5.66268 2.31434 3.1771 
334 1 1 5.71478 2.60654 4.86118 
333 1 1 4.90062 1.3603 4.86865 
239 1 1 7.27703 1.55793 3.7904 
221 1 1 0.0656235 1.79027 3.2435 
238 1 1 7.37634 2.56509 3.31515 
224 1 1 0.0351765 2.44629 3.99888 
240 1 1 6.51325 2.5941 3.93131 
244 1 1 0.624565 4.22381 3.11645 
358 1 1 7.9556 4.28514 3.85773 
263 1 1 0.842463 4.7985 4.01631 
248 1 1 1.51079 3.9732 4.22834 
346 1 1 2.41757 4.10286 4.93216 
369 1 1 3.17214 4.7515 4.79215 
249 1 1 3.30584 3.23402 3.37439 
273 1 1 5.05814 5.00122 3.27098 
252 1 1 3.29647 3.99578 4.07665 
256 1 1 4.79214 3.88031 4.05061 
255 1 1 5.60452 3.22565 3.9457 
354 1 1 5.60909 3.97452 4.82278 
260 1 1 6.63791 4.15103 3.89584 
353 1 1 4.84709 3.20618 5.0576 
258 1 1 7.33823 4.24339 3.08896 
259 1 1 7.40956 3.35419 4.08054 
277 1 1 6.43349 4.93716 3.28561 
279 1 1 7.14979 5.02278 4.00539 
365 1 1 1.47722 4.73433 4.8895 
262 1 1 0.823631 5.65689 3.13362 
362 1 1 0.78024 5.55681 4.739 
268 1 1 1.62224 5.61797 4.08977 
265 1 1 1.55487 4.64953 3.27536 
267 1 1 2.45955 4.82906 3.95952 
272 1 1 3.08391 5.56121 3.87594 
366 1 1 2.20944 5.66488 4.92823 
270 1 1 4.10541 5.69481 3.12502 
293 1 1 4.78333 6.55478 3.26542 
271 1 1 4.06199 4.9209 3.83988 
370 1 1 4.19748 5.62729 4.92221 
276 1 1 4.88776 5.76973 4.04583 
393 1 1 4.99474 6.58314 4.80878 
274 1 1 5.65631 5.88654 3.04551 
275 1 1 5.62598 4.78999 4.01765 
295 1 1 5.66872 6.45795 3.95911 
281 1 1 8.10812 6.44611 3.26944 
278 1 1 7.28243 5.84016 3.26223 
280 1 1 6.44497 5.85307 3.89449 
264 1 1 8.00474 5.66588 4.07659 
299 1 1 7.21661 6.48364 4.1964 
297 1 1 6.41968 6.53255 3.07699 
381 1 1 -0.0377242 6.42614 4.76717 
282 1 1 0.774742 7.17147 3.23988 
283 1 1 0.893201 6.30673 4.00031 
288 1 1 1.48592 7.21107 4.17898 
385 1 1 1.48323 6.3584 4.80724 
382 1 1 0.603772 7.28643 4.82714 
287 1 1 2.33993 6.56765 4.10666 
292 1 1 3.17801 7.37002 4.26501 
291 1 1 3.98941 6.38157 4.02001 
290 1 1 3.92323 7.19811 3.36131 
211 1 1 4.06541 8.01534 4.08649 
294 1 1 5.71419 7.29542 3.15107 
296 1 1 4.98065 7.29671 3.91105 
201 1 1 0.0891017 8.08846 3.04052 
284 1 1 7.999 7.16279 4.04415 
300 1 1 6.46441 7.36451 3.99455 
317 1 1 6.61014 0.185677 4.89834 
398 1 1 7.1373 7.39581 4.92189 
302 1 1 0.97352 0.719261 4.89386 
323 1 1 0.729602 1.60692 5.66724 
325 1 1 1.58627 1.59776 4.97246 
303 1 1 0.816848 7.95799 5.5895 
305 1 1 1.62155 8.0087 4.86361 
308 1 1 1.67418 0.618634 5.73191 
306 1 1 2.27752 0.663777 4.70312 
329 1 1 3.10727 1.45138 4.84374 
312 1 1 3.09371 0.705252 5.72615 
311 1 1 3.8607 8.03924 5.68312 
314 1 1 5.68273 0.572081 4.93445 
316 1 1 4.79698 0.721269 5.65755 
433 1 1 4.70064 1.69839 6.44962 
417 1 1 6.5193 0.0855602 6.5991 
320 1 1 6.44232 0.782749 5.83269 
304 1 1 0.0757745 0.666728 5.66145 
318 1 1 7.37605 0.847797 4.84073 
321 1 1 0.107945 1.64519 4.8221 
319 1 1 7.19411 0.0200826 5.68349 
322 1 1 0.835824 2.44875 4.90144 
324 1 1 0.010032 2.46925 5.62564 
341 1 1 8.04423 3.14699 4.82285 
343 1 1 0.826466 3.28893 5.7365 
422 1 1 0.790778 2.44411 6.43928 
328 1 1 1.6262 2.41812 5.66765 
326 1 1 2.45435 2.26456 5.00769 
327 1 1 2.48989 1.50463 5.6898 
347 1 1 2.44218 3.15498 5.66841 
345 1 1 1.7836 3.23656 4.92155 
331 1 1 3.92993 1.67925 5.53728 
349 1 1 3.38015 3.18098 4.98278 
332 1 1 3.28408 2.49925 5.77101 
430 1 1 4.16511 2.53397 6.39576 
337 1 1 6.49699 1.43941 4.93084 
335 1 1 5.52234 1.41908 5.73902 
336 1 1 4.79232 2.23997 5.57755 
434 1 1 5.48928 2.4638 6.5298 
340 1 1 6.34432 2.23629 5.7132 
357 1 1 6.41849 3.23719 4.88799 
457 1 1 6.41478 3.31032 6.53077 
338 1 1 7.20968 2.3523 4.92411 
339 1 1 7.3961 1.51555 5.62572 
359 1 1 7.06416 3.07007 5.57847 
342 1 1 0.735463 3.90684 4.82378 
344 1 1 8.02541 3.90829 5.45573 
363 1 1 0.713207 4.7395 5.68697 
348 1 1 1.43971 4.09787 5.69009 
352 1 1 3.34512 4.07078 5.65168 
469 1 1 3.23205 4.79904 6.39128 
351 1 1 4.02808 3.29099 5.7169 
350 1 1 4.09285 4.07787 4.88033 
356 1 1 4.78593 4.18273 5.73437 
371 1 1 4.00841 4.9294 5.75457 
453 1 1 4.86313 3.36177 6.47375 
377 1 1 6.47516 4.9661 4.84761 
355 1 1 5.72433 3.46393 5.65541 
360 1 1 6.60758 4.02348 5.55935 
375 1 1 5.65283 4.88853 5.49555 
379 1 1 7.22834 4.10963 4.73725 
478 1 1 7.31852 4.78958 5.66546 
441 1 1 7.96768 3.06956 6.39545 
361 1 1 8.03244 4.86218 4.82573 
368 1 1 1.5577 5.54793 5.71088 
462 1 1 0.771823 5.58133 6.44262 
364 1 1 0.279409 5.64151 5.54786 
485 1 1 1.52818 6.40638 6.64185 
367 1 1 2.42741 4.80096 5.64558 
372 1 1 3.15901 5.60028 5.5172 
466 1 1 2.53179 5.70499 6.49584 
489 1 1 3.17135 6.46847 6.44183 
373 1 1 4.86654 4.91355 4.71142 
391 1 1 3.88825 6.37443 5.56912 
376 1 1 4.83276 5.65571 5.81599 
470 1 1 3.8678 5.66511 6.49606 
374 1 1 5.74711 5.63695 4.64747 
380 1 1 6.41061 5.5811 5.72138 
474 1 1 5.61427 5.5289 6.66439 
397 1 1 6.35693 6.54642 4.79824 
378 1 1 7.20591 5.70125 4.91787 
399 1 1 7.22611 6.51363 5.71606 
383 1 1 0.95445 6.58234 5.68395 
482 1 1 0.674617 7.29029 6.69836 
481 1 1 0.148395 6.36722 6.32101 
387 1 1 2.34077 6.33744 5.78977 
389 1 1 3.18621 6.28593 4.65025 
307 1 1 2.38526 7.93623 5.8304 
386 1 1 2.37066 7.24 4.85096 
388 1 1 1.69604 7.26662 5.66732 
390 1 1 4.13046 7.36843 4.81928 
392 1 1 3.09335 7.15124 5.63863 
490 1 1 3.95935 7.22108 6.34212 
394 1 1 5.81346 7.52037 4.73919 
395 1 1 5.67741 6.3025 5.85779 
313 1 1 4.90733 8.04317 5.019 
396 1 1 4.83086 7.3961 5.72958 
413 1 1 4.68808 0.0366813 6.45759 
315 1 1 5.672 0.0702178 5.88373 
400 1 1 6.33769 7.15947 5.73538 
384 1 1 8.00388 7.2362 5.66252 
401 1 1 7.95407 8.02961 6.51948 
498 1 1 7.35257 7.23689 6.45354 
402 1 1 0.84089 0.763789 6.50276 
408 1 1 1.80117 0.825198 7.39208 
405 1 1 1.43082 8.02341 6.49777 
6 1 1 2.62668 0.870151 8.01213 
409 1 1 3.2086 7.81817 6.44088 
406 1 1 2.37522 0.847425 6.4926 
410 1 1 3.8338 0.703901 6.51671 
429 1 1 3.44743 1.62218 6.47632 
412 1 1 3.14373 0.953653 7.17801 
416 1 1 4.68797 0.737114 7.2691 
414 1 1 5.55286 0.967057 6.69184 
420 1 1 6.3924 0.806271 7.39793 
418 1 1 7.19549 0.773112 6.6682 
18 1 1 7.21355 0.863338 0.0318548 
404 1 1 7.98525 0.78446 7.55259 
419 1 1 7.25069 8.09005 7.52612 
425 1 1 1.59562 1.68724 6.42533 
423 1 1 0.857233 1.7274 7.10047 
428 1 1 1.59409 2.52399 7.18978 
443 1 1 0.762957 3.34142 7.25444 
445 1 1 1.65789 3.2832 6.28048 
426 1 1 2.5162 2.54254 6.52836 
427 1 1 2.45548 1.65819 7.23765 
447 1 1 2.49502 3.21718 7.43591 
29 1 1 3.3215 1.52213 0.0564706 
431 1 1 3.94997 1.65867 7.3467 
432 1 1 3.28163 2.44179 7.36404 
436 1 1 4.74979 2.46957 7.24603 
435 1 1 5.46706 1.76457 7.3309 
437 1 1 6.50232 1.65402 6.47222 
440 1 1 6.21902 2.51726 7.14035 
421 1 1 8.05939 1.77753 6.48224 
438 1 1 7.27271 2.31981 6.30175 
38 1 1 7.34233 2.63256 8.05226 
424 1 1 0.0965558 2.4426 7.30544 
439 1 1 7.2123 1.89348 7.37722 
442 1 1 0.599236 4.03232 6.4239 
465 1 1 1.5118 4.7394 6.49919 
42 1 1 0.853146 3.94528 0.0277144 
444 1 1 7.88866 4.02885 7.40183 
461 1 1 7.90843 4.77807 6.60416 
446 1 1 2.5719 3.90394 6.27698 
448 1 1 1.7002 3.90403 7.14607 
46 1 1 2.44338 3.91048 0.171338 
452 1 1 3.35147 4.03329 7.51025 
50 1 1 4.12638 4.01846 0.222228 
449 1 1 3.29102 3.29101 6.66163 
450 1 1 3.95629 4.16347 6.50852 
451 1 1 4.08152 3.27636 7.35833 
471 1 1 4.08654 4.77493 7.42575 
77 1 1 6.50116 4.85265 0.160495 
454 1 1 5.55602 4.2275 6.41798 
473 1 1 4.69621 4.94795 6.51936 
456 1 1 4.89539 4.09088 7.17888 
455 1 1 5.69588 3.26153 7.42895 
460 1 1 6.46917 4.19073 7.43829 
58 1 1 7.19347 4.0094 0.1013 
458 1 1 7.24594 3.79799 6.28362 
459 1 1 7.28655 3.08114 7.18808 
62 1 1 0.836579 5.54708 0.099702 
463 1 1 0.695453 4.65095 7.25491 
468 1 1 1.55128 5.58202 7.33472 
464 1 1 8.0192 5.65672 7.42542 
65 1 1 1.59502 4.64497 7.84808 
85 1 1 1.46759 6.44392 -0.00919165 
467 1 1 2.31941 4.76851 7.0937 
487 1 1 2.40883 6.45192 7.2508 
93 1 1 4.94178 6.53826 0.046546 
472 1 1 3.30256 5.57067 7.33935 
493 1 1 4.67752 6.39681 6.48208 
476 1 1 4.76587 5.62925 7.45411 
475 1 1 5.69191 4.76815 7.34031 
495 1 1 5.45021 6.45716 7.22848 
480 1 1 6.55926 5.569 7.18799 
61 1 1 0.0780098 4.76242 0.17709 
497 1 1 6.43772 6.50115 6.52188 
479 1 1 7.18736 4.80689 7.49037 
477 1 1 6.49421 4.78617 6.37051 
499 1 1 7.32129 5.7183 6.43997 
483 1 1 0.625911 6.44398 7.26283 
82 1 1 0.831261 7.25524 7.9107 
403 1 1 0.660912 0.0558798 7.31032 
488 1 1 1.59221 7.24259 7.34971 
484 1 1 7.8962 7.19567 7.23847 
86 1 1 2.44852 7.10912 0.0768733 
5 1 1 1.71575 8.01583 7.90814 
486 1 1 2.35227 7.2042 6.60613 
407 1 1 2.52806 7.97946 7.18242 
13 1 1 4.76549 0.0582975 7.99874 
491 1 1 4.06164 6.3839 7.27488 
492 1 1 3.20778 7.24873 7.43345 
411 1 1 3.85182 0.0336318 7.18811 
496 1 1 4.72324 7.29698 7.19232 
94 1 1 5.5345 7.33162 8.00056 
494 1 1 5.58122 7.45091 6.67192 
415 1 1 5.68233 0.146473 7.20498 
98 1 1 7.21012 7.29095 0.0588745 
500 1 1 6.4921 7.25472 7.28538 
78 1 1 7.20592 6.43867 7.2839 
